
     Program PWSCF v.6.4.1 starts on 16Apr2020 at  7:29:18 

     This program is part of the open-source Quantum ESPRESSO suite
     for quantum simulation of materials; please cite
         "P. Giannozzi et al., J. Phys.:Condens. Matter 21 395502 (2009);
         "P. Giannozzi et al., J. Phys.:Condens. Matter 29 465901 (2017);
          URL http://www.quantum-espresso.org", 
     in publications or presentations arising from this work. More details at
     http://www.quantum-espresso.org/quote

     Parallel version (MPI), running on    48 processors

     MPI processes distributed on     1 nodes
     R & G space division:  proc/nbgrp/npool/nimage =      48
     Waiting for input...
     Reading input from standard input

     Current dimensions of program PWSCF are:
     Max number of different atomic species (ntypx) = 10
     Max number of k-points (npk) =  40000
     Max angular momentum in pseudopotentials (lmaxx) =  3
               file Fe.pbe-spn-kjpaw_psl.0.2.1.UPF: wavefunction(s)  3D renormalized
               file O.pbe-n-kjpaw_psl.0.1.UPF: wavefunction(s)  2P renormalized

     Subspace diagonalization in iterative solution of the eigenvalue problem:
     one sub-group per band group will be used
     scalapack distributed-memory algorithm (size of sub-group:  4*  4 procs)

     Message from routine setup:
     DEPRECATED: symmetry with ibrav=0, use correct ibrav instead
 
     Parallelization info
     --------------------
     sticks:   dense  smooth     PW     G-vecs:    dense   smooth      PW
     Min          41      41     10                  897      897     110
     Max          42      42     11                  900      900     113
     Sum        2011    2011    503                43131    43131    5359
 


     bravais-lattice index     =            0
     lattice parameter (alat)  =      18.8524  a.u.
     unit-cell volume          =    1943.2939 (a.u.)^3
     number of atoms/cell      =           24
     number of atomic types    =            3
     number of electrons       =       180.00
     number of Kohn-Sham states=          108
     kinetic-energy cutoff     =      30.0000  Ry
     charge density cutoff     =     120.0000  Ry
     convergence threshold     =      1.0E-06
     mixing beta               =       0.5000
     number of iterations used =            8  plain     mixing
     Exchange-correlation      = SLA PW PBX PBC ( 1  4  3  4 0 0)
     nstep                     =          100


     celldm(1)=  18.852379  celldm(2)=   0.000000  celldm(3)=   0.000000
     celldm(4)=   0.000000  celldm(5)=   0.000000  celldm(6)=   0.000000

     crystal axes: (cart. coord. in units of alat)
               a(1) = (   1.000000   0.000000   0.000000 )  
               a(2) = (   0.000000   0.592130   0.000000 )  
               a(3) = (   0.000000   0.000000   0.489805 )  

     reciprocal axes: (cart. coord. in units 2 pi/alat)
               b(1) = (  1.000000  0.000000  0.000000 )  
               b(2) = (  0.000000  1.688818  0.000000 )  
               b(3) = (  0.000000  0.000000  2.041631 )  


     PseudoPot. # 1 for P  read from file:
     ./P.pbe-n-rrkjus_psl.1.0.0.UPF
     MD5 check sum: 8b930f418f0a4573dca56cd030ffe088
     Pseudo is Ultrasoft + core correction, Zval =  5.0
     Generated using "atomic" code by A. Dal Corso v.5.1
     Using radial grid of 1147 points,  6 beta functions with: 
                l(1) =   0
                l(2) =   0
                l(3) =   1
                l(4) =   1
                l(5) =   2
                l(6) =   2
     Q(r) pseudized with 0 coefficients 


     PseudoPot. # 2 for Fe read from file:
     ./Fe.pbe-spn-kjpaw_psl.0.2.1.UPF
     MD5 check sum: e86618425769142926afa95317d90200
     Pseudo is Projector augmented-wave + core cor, Zval = 16.0
     Generated using "atomic" code by A. Dal Corso v.5.0.99 svn rev. 10869
     Shape of augmentation charge: PSQ
     Using radial grid of 1191 points,  6 beta functions with: 
                l(1) =   0
                l(2) =   0
                l(3) =   1
                l(4) =   1
                l(5) =   2
                l(6) =   2
     Q(r) pseudized with 0 coefficients 


     PseudoPot. # 3 for O  read from file:
     ./O.pbe-n-kjpaw_psl.0.1.UPF
     MD5 check sum: 0234752ac141de4415c5fc33072bef88
     Pseudo is Projector augmented-wave + core cor, Zval =  6.0
     Generated using "atomic" code by A. Dal Corso v.5.0.99 svn rev. 10869
     Shape of augmentation charge: BESSEL
     Using radial grid of 1095 points,  4 beta functions with: 
                l(1) =   0
                l(2) =   0
                l(3) =   1
                l(4) =   1
     Q(r) pseudized with 0 coefficients 


     atomic species   valence    mass     pseudopotential
        P              5.00    30.97376     P ( 1.00)
        Fe            16.00    55.84500     Fe( 1.00)
        O              6.00    15.99940     O ( 1.00)

      8 Sym. Ops., with inversion, found ( 6 have fractional translation)



   Cartesian axes

     site n.     atom                  positions (alat units)
         1           Fe  tau(   1) = (   0.2249200   0.4440976   0.2236364  )
         2           Fe  tau(   2) = (   0.7750800   0.1480325   0.2661681  )
         3           Fe  tau(   3) = (   0.2750800   0.1480325   0.4685387  )
         4           Fe  tau(   4) = (   0.7249200   0.4440976   0.0212658  )
         5           P   tau(   5) = (   0.0963420   0.1480325   0.1988048  )
         6           P   tau(   6) = (   0.9036580   0.4440976   0.2909997  )
         7           P   tau(   7) = (   0.4036580   0.4440976   0.4437071  )
         8           P   tau(   8) = (   0.5963420   0.1480325   0.0460975  )
         9           O   tau(   9) = (   0.1692870   0.0277656   0.1260634  )
        10           O   tau(  10) = (   0.8307130   0.5643646   0.3637411  )
        11           O   tau(  11) = (   0.3307130   0.5643646   0.3709657  )
        12           O   tau(  12) = (   0.6692870   0.0277656   0.1188388  )
        13           O   tau(  13) = (   0.6692870   0.2682995   0.1188388  )
        14           O   tau(  14) = (   0.3307130   0.3238307   0.3709657  )
        15           O   tau(  15) = (   0.8307130   0.3238307   0.3637411  )
        16           O   tau(  16) = (   0.1692870   0.2682995   0.1260634  )
        17           O   tau(  17) = (   0.0542900   0.4440976   0.3183053  )
        18           O   tau(  18) = (   0.9457100   0.1480325   0.1714992  )
        19           O   tau(  19) = (   0.4457100   0.1480325   0.0734031  )
        20           O   tau(  20) = (   0.5542900   0.4440976   0.4164014  )
        21           O   tau(  21) = (   0.1228920   0.1480325   0.3494158  )
        22           O   tau(  22) = (   0.8771080   0.4440976   0.1403888  )
        23           O   tau(  23) = (   0.3771080   0.4440976   0.1045135  )
        24           O   tau(  24) = (   0.6228920   0.1480325   0.3852910  )

     number of k points=     1  gaussian smearing, width (Ry)=  0.0020
                       cart. coord. in units 2pi/alat
        k(    1) = (   0.0000000   0.0000000   0.0000000), wk =   2.0000000

     Dense  grid:    43131 G-vectors     FFT dimensions: (  72,  40,  36)

     Estimated max dynamical RAM per process >      20.71 MB

     Estimated total dynamical RAM >     994.01 MB

     Check: negative core charge=   -0.003578

     Initial potential from superposition of free atoms

     starting charge  179.99758, renormalised to  180.00000

     negative rho (up, down):  1.274E-03 0.000E+00
     Starting wfcs are  132 randomized atomic wfcs
     Checking if some PAW data can be deallocated... 

     total cpu time spent up to now is        6.9 secs

     Self-consistent Calculation

     iteration #  1     ecut=    30.00 Ry     beta= 0.50
     Davidson diagonalization with overlap
     ethr =  1.00E-02,  avg # of iterations =  3.0

     negative rho (up, down):  7.192E-03 0.000E+00

     total cpu time spent up to now is        7.3 secs

     total energy              =   -2037.08859445 Ry
     Harris-Foulkes estimate   =   -2041.10693700 Ry
     estimated scf accuracy    <       6.56714081 Ry

     iteration #  2     ecut=    30.00 Ry     beta= 0.50
     Davidson diagonalization with overlap
     ethr =  3.65E-03,  avg # of iterations =  2.0

     negative rho (up, down):  8.082E-03 0.000E+00

     total cpu time spent up to now is        7.5 secs

     total energy              =   -2033.56411127 Ry
     Harris-Foulkes estimate   =   -2045.28258445 Ry
     estimated scf accuracy    <      56.89070345 Ry

     iteration #  3     ecut=    30.00 Ry     beta= 0.50
     Davidson diagonalization with overlap
     ethr =  3.65E-03,  avg # of iterations =  2.0

     negative rho (up, down):  9.010E-03 0.000E+00

     total cpu time spent up to now is        7.7 secs

     total energy              =   -2039.72762214 Ry
     Harris-Foulkes estimate   =   -2040.24254882 Ry
     estimated scf accuracy    <       2.74688024 Ry

     iteration #  4     ecut=    30.00 Ry     beta= 0.50
     Davidson diagonalization with overlap
     ethr =  1.53E-03,  avg # of iterations =  1.0

     negative rho (up, down):  1.123E-02 0.000E+00

     total cpu time spent up to now is        7.8 secs

     total energy              =   -2039.78861003 Ry
     Harris-Foulkes estimate   =   -2039.90420721 Ry
     estimated scf accuracy    <       0.93543293 Ry

     iteration #  5     ecut=    30.00 Ry     beta= 0.50
     Davidson diagonalization with overlap
     ethr =  5.20E-04,  avg # of iterations =  1.0

     negative rho (up, down):  1.863E-02 0.000E+00

     total cpu time spent up to now is        7.9 secs

     total energy              =   -2039.77098964 Ry
     Harris-Foulkes estimate   =   -2039.84418839 Ry
     estimated scf accuracy    <       0.37071631 Ry

     iteration #  6     ecut=    30.00 Ry     beta= 0.50
     Davidson diagonalization with overlap
     ethr =  2.06E-04,  avg # of iterations = 14.0

     negative rho (up, down):  1.909E-02 0.000E+00

     total cpu time spent up to now is        8.3 secs

     total energy              =   -2039.81957670 Ry
     Harris-Foulkes estimate   =   -2039.83376849 Ry
     estimated scf accuracy    <       0.17877474 Ry

     iteration #  7     ecut=    30.00 Ry     beta= 0.50
     Davidson diagonalization with overlap
     ethr =  9.93E-05,  avg # of iterations =  1.0

     negative rho (up, down):  2.113E-02 0.000E+00

     total cpu time spent up to now is        8.4 secs

     total energy              =   -2039.81740386 Ry
     Harris-Foulkes estimate   =   -2039.82615198 Ry
     estimated scf accuracy    <       0.05590300 Ry

     iteration #  8     ecut=    30.00 Ry     beta= 0.50
     Davidson diagonalization with overlap
     ethr =  3.11E-05,  avg # of iterations =  1.0

     negative rho (up, down):  2.208E-02 0.000E+00

     total cpu time spent up to now is        8.6 secs

     total energy              =   -2039.82265009 Ry
     Harris-Foulkes estimate   =   -2039.82289658 Ry
     estimated scf accuracy    <       0.00436857 Ry

     iteration #  9     ecut=    30.00 Ry     beta= 0.50
     Davidson diagonalization with overlap
     ethr =  2.43E-06,  avg # of iterations =  5.0

     negative rho (up, down):  2.293E-02 0.000E+00

     total cpu time spent up to now is        8.8 secs

     total energy              =   -2039.82304242 Ry
     Harris-Foulkes estimate   =   -2039.82310406 Ry
     estimated scf accuracy    <       0.00336504 Ry

     iteration # 10     ecut=    30.00 Ry     beta= 0.50
     Davidson diagonalization with overlap
     ethr =  1.87E-06,  avg # of iterations =  1.0

     negative rho (up, down):  2.356E-02 0.000E+00

     total cpu time spent up to now is        8.9 secs

     total energy              =   -2039.82308496 Ry
     Harris-Foulkes estimate   =   -2039.82318137 Ry
     estimated scf accuracy    <       0.00148718 Ry

     iteration # 11     ecut=    30.00 Ry     beta= 0.50
     Davidson diagonalization with overlap
     ethr =  8.26E-07,  avg # of iterations =  1.0

     negative rho (up, down):  2.379E-02 0.000E+00

     total cpu time spent up to now is        9.1 secs

     total energy              =   -2039.82310146 Ry
     Harris-Foulkes estimate   =   -2039.82314809 Ry
     estimated scf accuracy    <       0.00038501 Ry

     iteration # 12     ecut=    30.00 Ry     beta= 0.50
     Davidson diagonalization with overlap
     ethr =  2.14E-07,  avg # of iterations =  1.0

     negative rho (up, down):  2.387E-02 0.000E+00

     total cpu time spent up to now is        9.2 secs

     total energy              =   -2039.82311300 Ry
     Harris-Foulkes estimate   =   -2039.82312501 Ry
     estimated scf accuracy    <       0.00004572 Ry

     iteration # 13     ecut=    30.00 Ry     beta= 0.50
     Davidson diagonalization with overlap
     ethr =  2.54E-08,  avg # of iterations =  2.0

     negative rho (up, down):  2.395E-02 0.000E+00

     total cpu time spent up to now is        9.4 secs

     total energy              =   -2039.82311135 Ry
     Harris-Foulkes estimate   =   -2039.82311715 Ry
     estimated scf accuracy    <       0.00001221 Ry

     iteration # 14     ecut=    30.00 Ry     beta= 0.50
     Davidson diagonalization with overlap
     ethr =  6.78E-09,  avg # of iterations =  2.0

     negative rho (up, down):  2.396E-02 0.000E+00

     total cpu time spent up to now is        9.5 secs

     total energy              =   -2039.82311372 Ry
     Harris-Foulkes estimate   =   -2039.82311269 Ry
     estimated scf accuracy    <       0.00000267 Ry

     iteration # 15     ecut=    30.00 Ry     beta= 0.50
     Davidson diagonalization with overlap
     ethr =  1.48E-09,  avg # of iterations =  2.0

     negative rho (up, down):  2.400E-02 0.000E+00

     total cpu time spent up to now is        9.7 secs

     total energy              =   -2039.82311042 Ry
     Harris-Foulkes estimate   =   -2039.82311390 Ry
     estimated scf accuracy    <       0.00000132 Ry

     iteration # 16     ecut=    30.00 Ry     beta= 0.50
     Davidson diagonalization with overlap
     ethr =  7.36E-10,  avg # of iterations =  2.0

     negative rho (up, down):  2.401E-02 0.000E+00

     total cpu time spent up to now is        9.8 secs

     End of self-consistent calculation

          k = 0.0000 0.0000 0.0000 (  5359 PWs)   bands (ev):

   -82.7821 -82.7816 -82.7800 -82.7797 -47.8001 -47.7971 -47.7939 -47.7931
   -47.7911 -47.7825 -47.7824 -47.7784 -47.4335 -47.4182 -47.4165 -47.4067
   -16.3714 -16.0943 -16.0634 -15.8989 -13.9025 -13.8084 -13.7525 -13.7220
   -13.5603 -13.5292 -13.5267 -13.5198 -13.4985 -13.4226 -13.3962 -13.3660
    -3.9486  -3.2732  -3.2668  -2.9495  -2.0043  -1.6745  -1.4711  -1.3588
    -1.3191  -0.9668  -0.8411  -0.8133  -0.8083  -0.6860  -0.6463  -0.2011
     0.1827   0.4509   0.9261   0.9413   1.1161   1.1830   1.2106   1.3014
     1.4418   1.5261   1.6563   1.9998   2.0544   2.1516   2.1894   2.3485
     2.3955   2.4413   2.5127   2.5287   2.5696   2.5844   3.0574   3.2237
     3.2669   3.3444   3.3893   3.3940   3.4492   3.4628   3.8706   3.9924
     4.6063   4.6417   4.7011   4.7461   4.8458   4.8806   4.9060   4.9139
     5.0273   5.0567   5.0653   5.1162   6.0618   6.0727   6.4536   6.9478
     6.9509   7.0518   7.0840   7.2210   9.5551  11.7831  11.9944  13.0835
    13.2865  13.3010  13.3936  13.7145

     the Fermi energy is     5.0618 ev

!    total energy              =   -2039.82311140 Ry
     Harris-Foulkes estimate   =   -2039.82311071 Ry
     estimated scf accuracy    <       0.00000064 Ry

     The total energy is the sum of the following terms:

     one-electron contribution =   -1059.13904234 Ry
     hartree contribution      =     611.11596472 Ry
     xc contribution           =    -276.98892642 Ry
     ewald contribution        =    -858.19478414 Ry
     one-center paw contrib.   =    -456.61387753 Ry
     smearing contrib. (-TS)   =      -0.00244570 Ry

     convergence has been achieved in  16 iterations

     negative rho (up, down):  2.401E-02 0.000E+00

     Forces acting on atoms (cartesian axes, Ry/au):

     atom    1 type  2   force =     0.05290119    0.00000000   -0.02380760
     atom    2 type  2   force =    -0.05290119    0.00000000    0.02380760
     atom    3 type  2   force =    -0.05290119    0.00000000   -0.02380760
     atom    4 type  2   force =     0.05290119    0.00000000    0.02380760
     atom    5 type  1   force =     0.00749631    0.00000000    0.00422860
     atom    6 type  1   force =    -0.00749631   -0.00000000   -0.00422860
     atom    7 type  1   force =    -0.00749631    0.00000000    0.00422860
     atom    8 type  1   force =     0.00749631    0.00000000   -0.00422860
     atom    9 type  3   force =     0.01169094   -0.02494071   -0.03852828
     atom   10 type  3   force =    -0.01169094    0.02494071    0.03852828
     atom   11 type  3   force =    -0.01169094    0.02494071   -0.03852828
     atom   12 type  3   force =     0.01169094   -0.02494071    0.03852828
     atom   13 type  3   force =     0.01169094    0.02494071    0.03852828
     atom   14 type  3   force =    -0.01169094   -0.02494071   -0.03852828
     atom   15 type  3   force =    -0.01169094   -0.02494071    0.03852828
     atom   16 type  3   force =     0.01169094    0.02494071   -0.03852828
     atom   17 type  3   force =     0.00754022    0.00000000    0.03453028
     atom   18 type  3   force =    -0.00754022    0.00000000   -0.03453028
     atom   19 type  3   force =    -0.00754022   -0.00000000    0.03453028
     atom   20 type  3   force =     0.00754022   -0.00000000   -0.03453028
     atom   21 type  3   force =    -0.03148731    0.00000000    0.03397345
     atom   22 type  3   force =     0.03148731    0.00000000   -0.03397345
     atom   23 type  3   force =     0.03148731    0.00000000    0.03397345
     atom   24 type  3   force =    -0.03148731    0.00000000   -0.03397345

     Total force =     0.212796     Total SCF correction =     0.000756


     Computing stress (Cartesian axis) and pressure


     negative rho (up, down):  2.401E-02 0.000E+00
          total   stress  (Ry/bohr**3)                   (kbar)     P= -454.03
  -0.00296553   0.00000000   0.00000000       -436.24      0.00      0.00
   0.00000000  -0.00288323   0.00000000          0.00   -424.14      0.00
   0.00000000   0.00000000  -0.00341064          0.00      0.00   -501.72


     BFGS Geometry Optimization

     number of scf cycles    =   1
     number of bfgs steps    =   0

     enthalpy new            =   -2039.8231114027 Ry

     new trust radius        =       0.5000000000 bohr
     new conv_thr            =       0.0000010000 Ry

     new unit-cell volume =   1659.14893 a.u.^3 (   245.86050 Ang^3 )
     density =      4.07445 g/cm^3

CELL_PARAMETERS (angstrom)
   9.484318136   0.000000000   0.000000000
   0.000000000   5.624034776   0.000000000
   0.000000000   0.000000000   4.609296595

ATOMIC_POSITIONS (angstrom)
Fe       2.150913934   4.218026082   2.096622301
Fe       7.333404202   1.406008694   2.512674294
Fe       2.591245134   1.406008694   4.401270598
Fe       6.893073002   4.218026082   0.208025997
P        0.916246493   1.406008694   1.872252862
P        8.568071643   4.218026082   2.737043733
P        3.825912575   4.218026082   4.176901159
P        5.658405561   1.406008694   0.432395436
O        1.609483632   0.255359270   1.173526250
O        7.874834504   5.368675506   3.435770345
O        3.132675436   5.368675506   3.478174548
O        6.351642700   0.255359270   1.131122047
O        6.351642700   2.556658118   1.131122047
O        3.132675436   3.067376658   3.478174548
O        7.874834504   3.067376658   3.435770345
O        1.609483632   2.556658118   1.173526250
O        0.517426639   4.218026082   3.006870823
O        8.966891497   1.406008694   1.602425772
O        4.224732429   1.406008694   0.702222525
O        5.259585707   4.218026082   3.907074070
O        1.155010955   1.406008694   3.299450036
O        8.329307181   4.218026082   1.309846559
O        3.587148113   4.218026082   0.994801739
O        5.897170023   1.406008694   3.614494856



     Writing output data file VLAB.save/
     Message from routine punch:
     wavefunctions written to file
     NEW-OLD atomic charge density approx. for the potential

     Check: negative core charge=   -0.002856

     negative rho (up, down):  8.792E-03 0.000E+00
     extrapolated charge  149.17370, renormalised to  180.00000

     total cpu time spent up to now is       10.2 secs

     Self-consistent Calculation

     iteration #  1     ecut=    30.00 Ry     beta= 0.50
     Davidson diagonalization with overlap
     ethr =  1.00E-06,  avg # of iterations = 12.0

     negative rho (up, down):  1.371E-02 0.000E+00

     total cpu time spent up to now is       10.8 secs

     total energy              =   -1938.66568238 Ry
     Harris-Foulkes estimate   =   -2221.61630759 Ry
     estimated scf accuracy    <     123.39138105 Ry

     iteration #  2     ecut=    30.00 Ry     beta= 0.50
     Davidson diagonalization with overlap
     ethr =  1.00E-02,  avg # of iterations =  5.0

     negative rho (up, down):  8.800E-05 0.000E+00

     total cpu time spent up to now is       11.1 secs

     total energy              =   -2039.66845081 Ry
     Harris-Foulkes estimate   =   -2160.14690374 Ry
     estimated scf accuracy    <     389.06479652 Ry

     iteration #  3     ecut=    30.00 Ry     beta= 0.50
     Davidson diagonalization with overlap
     ethr =  1.00E-02,  avg # of iterations =  4.0

     total cpu time spent up to now is       11.3 secs

     total energy              =   -2044.03486485 Ry
     Harris-Foulkes estimate   =   -2060.33756051 Ry
     estimated scf accuracy    <     124.37596842 Ry

     iteration #  4     ecut=    30.00 Ry     beta= 0.50
     Davidson diagonalization with overlap
     ethr =  1.00E-02,  avg # of iterations =  4.0

     total cpu time spent up to now is       11.5 secs

     total energy              =   -2041.90730297 Ry
     Harris-Foulkes estimate   =   -2046.60551392 Ry
     estimated scf accuracy    <      35.68151763 Ry

     iteration #  5     ecut=    30.00 Ry     beta= 0.50
     Davidson diagonalization with overlap
     ethr =  1.00E-02,  avg # of iterations =  2.0

     negative rho (up, down):  1.796E-04 0.000E+00

     total cpu time spent up to now is       11.7 secs

     total energy              =   -2040.94412984 Ry
     Harris-Foulkes estimate   =   -2042.80151457 Ry
     estimated scf accuracy    <      12.21880863 Ry

     iteration #  6     ecut=    30.00 Ry     beta= 0.50
     Davidson diagonalization with overlap
     ethr =  6.79E-03,  avg # of iterations =  2.0

     negative rho (up, down):  9.217E-04 0.000E+00

     total cpu time spent up to now is       11.9 secs

     total energy              =   -2040.72651849 Ry
     Harris-Foulkes estimate   =   -2041.27818374 Ry
     estimated scf accuracy    <       5.24859065 Ry

     iteration #  7     ecut=    30.00 Ry     beta= 0.50
     Davidson diagonalization with overlap
     ethr =  2.92E-03,  avg # of iterations =  3.0

     negative rho (up, down):  1.858E-03 0.000E+00

     total cpu time spent up to now is       12.0 secs

     total energy              =   -2040.33894740 Ry
     Harris-Foulkes estimate   =   -2040.85966499 Ry
     estimated scf accuracy    <       2.80173903 Ry

     iteration #  8     ecut=    30.00 Ry     beta= 0.50
     Davidson diagonalization with overlap
     ethr =  1.56E-03,  avg # of iterations =  2.0

     negative rho (up, down):  1.931E-03 0.000E+00

     total cpu time spent up to now is       12.2 secs

     total energy              =   -2040.36056965 Ry
     Harris-Foulkes estimate   =   -2040.45230068 Ry
     estimated scf accuracy    <       0.90815119 Ry

     iteration #  9     ecut=    30.00 Ry     beta= 0.50
     Davidson diagonalization with overlap
     ethr =  5.05E-04,  avg # of iterations =  1.0

     negative rho (up, down):  2.575E-03 0.000E+00

     total cpu time spent up to now is       12.3 secs

     total energy              =   -2040.23639707 Ry
     Harris-Foulkes estimate   =   -2040.38279135 Ry
     estimated scf accuracy    <       0.57321883 Ry

     iteration # 10     ecut=    30.00 Ry     beta= 0.50
     Davidson diagonalization with overlap
     ethr =  3.18E-04,  avg # of iterations =  2.0

     negative rho (up, down):  3.255E-03 0.000E+00

     total cpu time spent up to now is       12.5 secs

     total energy              =   -2040.27545916 Ry
     Harris-Foulkes estimate   =   -2040.29281773 Ry
     estimated scf accuracy    <       0.10101281 Ry

     iteration # 11     ecut=    30.00 Ry     beta= 0.50
     Davidson diagonalization with overlap
     ethr =  5.61E-05,  avg # of iterations =  3.0

     negative rho (up, down):  3.241E-03 0.000E+00

     total cpu time spent up to now is       12.7 secs

     total energy              =   -2040.31200830 Ry
     Harris-Foulkes estimate   =   -2040.31619137 Ry
     estimated scf accuracy    <       0.23003732 Ry

     iteration # 12     ecut=    30.00 Ry     beta= 0.50
     Davidson diagonalization with overlap
     ethr =  5.61E-05,  avg # of iterations =  1.0

     negative rho (up, down):  3.728E-03 0.000E+00

     total cpu time spent up to now is       12.9 secs

     total energy              =   -2040.29410322 Ry
     Harris-Foulkes estimate   =   -2040.31262734 Ry
     estimated scf accuracy    <       0.20330196 Ry

     iteration # 13     ecut=    30.00 Ry     beta= 0.50
     Davidson diagonalization with overlap
     ethr =  5.61E-05,  avg # of iterations =  1.0

     negative rho (up, down):  4.369E-03 0.000E+00

     total cpu time spent up to now is       13.1 secs

     total energy              =   -2040.28772714 Ry
     Harris-Foulkes estimate   =   -2040.29757745 Ry
     estimated scf accuracy    <       0.10988156 Ry

     iteration # 14     ecut=    30.00 Ry     beta= 0.50
     Davidson diagonalization with overlap
     ethr =  5.61E-05,  avg # of iterations =  1.0

     negative rho (up, down):  4.475E-03 0.000E+00

     total cpu time spent up to now is       13.2 secs

     total energy              =   -2040.28278383 Ry
     Harris-Foulkes estimate   =   -2040.29070693 Ry
     estimated scf accuracy    <       0.04391365 Ry

     iteration # 15     ecut=    30.00 Ry     beta= 0.50
     Davidson diagonalization with overlap
     ethr =  2.44E-05,  avg # of iterations =  1.0

     negative rho (up, down):  4.448E-03 0.000E+00

     total cpu time spent up to now is       13.4 secs

     total energy              =   -2040.28559310 Ry
     Harris-Foulkes estimate   =   -2040.28606711 Ry
     estimated scf accuracy    <       0.00432971 Ry

     iteration # 16     ecut=    30.00 Ry     beta= 0.50
     Davidson diagonalization with overlap
     ethr =  2.41E-06,  avg # of iterations =  3.0

     negative rho (up, down):  4.474E-03 0.000E+00

     total cpu time spent up to now is       13.5 secs

     total energy              =   -2040.28578169 Ry
     Harris-Foulkes estimate   =   -2040.28590416 Ry
     estimated scf accuracy    <       0.00098339 Ry

     iteration # 17     ecut=    30.00 Ry     beta= 0.50
     Davidson diagonalization with overlap
     ethr =  5.46E-07,  avg # of iterations =  2.0

     negative rho (up, down):  4.512E-03 0.000E+00

     total cpu time spent up to now is       13.7 secs

     total energy              =   -2040.28592960 Ry
     Harris-Foulkes estimate   =   -2040.28594565 Ry
     estimated scf accuracy    <       0.00056133 Ry

     iteration # 18     ecut=    30.00 Ry     beta= 0.50
     Davidson diagonalization with overlap
     ethr =  3.12E-07,  avg # of iterations =  1.0

     negative rho (up, down):  4.578E-03 0.000E+00

     total cpu time spent up to now is       13.8 secs

     total energy              =   -2040.28585952 Ry
     Harris-Foulkes estimate   =   -2040.28595186 Ry
     estimated scf accuracy    <       0.00060363 Ry

     iteration # 19     ecut=    30.00 Ry     beta= 0.50
     Davidson diagonalization with overlap
     ethr =  3.12E-07,  avg # of iterations =  1.0

     negative rho (up, down):  4.560E-03 0.000E+00

     total cpu time spent up to now is       14.0 secs

     total energy              =   -2040.28589344 Ry
     Harris-Foulkes estimate   =   -2040.28590211 Ry
     estimated scf accuracy    <       0.00004027 Ry

     iteration # 20     ecut=    30.00 Ry     beta= 0.50
     Davidson diagonalization with overlap
     ethr =  2.24E-08,  avg # of iterations =  2.0

     negative rho (up, down):  4.564E-03 0.000E+00

     total cpu time spent up to now is       14.1 secs

     total energy              =   -2040.28589362 Ry
     Harris-Foulkes estimate   =   -2040.28589703 Ry
     estimated scf accuracy    <       0.00001371 Ry

     iteration # 21     ecut=    30.00 Ry     beta= 0.50
     Davidson diagonalization with overlap
     ethr =  7.61E-09,  avg # of iterations =  3.0

     negative rho (up, down):  4.561E-03 0.000E+00

     total cpu time spent up to now is       14.3 secs

     total energy              =   -2040.28589301 Ry
     Harris-Foulkes estimate   =   -2040.28589459 Ry
     estimated scf accuracy    <       0.00000330 Ry

     iteration # 22     ecut=    30.00 Ry     beta= 0.50
     Davidson diagonalization with overlap
     ethr =  1.84E-09,  avg # of iterations =  2.0

     negative rho (up, down):  4.567E-03 0.000E+00

     total cpu time spent up to now is       14.5 secs

     End of self-consistent calculation

          k = 0.0000 0.0000 0.0000 (  5359 PWs)   bands (ev):

   -80.4292 -80.4290 -80.4287 -80.4286 -45.6999 -45.6954 -45.6953 -45.6924
   -45.6832 -45.6811 -45.6762 -45.6759 -45.3269 -45.3124 -45.3120 -45.3060
   -15.3470 -14.9653 -14.9542 -14.7094 -12.3278 -12.3169 -12.2378 -12.1884
   -12.0478 -12.0146 -11.9966 -11.8862 -11.8767 -11.8648 -11.8220 -11.7201
    -2.2649  -1.4417  -1.3943  -1.0449  -0.7093  -0.2489  -0.2027   0.0247
     0.0599   0.5002   0.5856   0.8689   0.8710   0.8723   0.9312   1.4075
     1.5063   1.7885   2.3679   2.4176   2.6146   2.6587   2.7299   2.7673
     2.9611   3.1170   3.2446   3.5236   3.5468   3.8216   3.8590   3.9145
     4.2101   4.2356   4.2722   4.2777   4.3044   4.3489   4.8393   4.9641
     5.0958   5.1399   5.2333   5.2620   5.3071   5.3890   5.7391   5.9467
     6.9392   6.9435   7.0222   7.1218   7.1858   7.2170   7.2692   7.2911
     7.3722   7.4349   7.4591   7.4762   8.7408   8.7568   9.3430   9.8365
     9.8674   9.8800   9.8940  10.1727  12.9132  14.9461  15.3465  16.0185
    16.0475  16.4009  16.4566  16.7670

     the Fermi energy is     7.4454 ev

!    total energy              =   -2040.28589314 Ry
     Harris-Foulkes estimate   =   -2040.28589349 Ry
     estimated scf accuracy    <       0.00000021 Ry

     The total energy is the sum of the following terms:

     one-electron contribution =    -984.89915220 Ry
     hartree contribution      =     587.42078017 Ry
     xc contribution           =    -279.38193250 Ry
     ewald contribution        =    -906.87379028 Ry
     one-center paw contrib.   =    -456.54963474 Ry
     smearing contrib. (-TS)   =      -0.00216357 Ry

     convergence has been achieved in  22 iterations

     negative rho (up, down):  4.567E-03 0.000E+00

     Forces acting on atoms (cartesian axes, Ry/au):

     atom    1 type  2   force =    -0.02139553    0.00000000    0.01240604
     atom    2 type  2   force =     0.02139553    0.00000000   -0.01240604
     atom    3 type  2   force =     0.02139553    0.00000000    0.01240604
     atom    4 type  2   force =    -0.02139553    0.00000000   -0.01240604
     atom    5 type  1   force =    -0.00367183   -0.00000000   -0.04327602
     atom    6 type  1   force =     0.00367183    0.00000000    0.04327602
     atom    7 type  1   force =     0.00367183    0.00000000   -0.04327602
     atom    8 type  1   force =    -0.00367183    0.00000000    0.04327602
     atom    9 type  3   force =     0.04543829   -0.10635439   -0.08439825
     atom   10 type  3   force =    -0.04543829    0.10635439    0.08439825
     atom   11 type  3   force =    -0.04543829    0.10635439   -0.08439825
     atom   12 type  3   force =     0.04543829   -0.10635439    0.08439825
     atom   13 type  3   force =     0.04543829    0.10635439    0.08439825
     atom   14 type  3   force =    -0.04543829   -0.10635439   -0.08439825
     atom   15 type  3   force =    -0.04543829   -0.10635439    0.08439825
     atom   16 type  3   force =     0.04543829    0.10635439   -0.08439825
     atom   17 type  3   force =     0.11534621    0.00000000    0.08233780
     atom   18 type  3   force =    -0.11534621    0.00000000   -0.08233780
     atom   19 type  3   force =    -0.11534621    0.00000000    0.08233780
     atom   20 type  3   force =     0.11534621    0.00000000   -0.08233780
     atom   21 type  3   force =    -0.05011527    0.00000000    0.16335560
     atom   22 type  3   force =     0.05011527    0.00000000   -0.16335560
     atom   23 type  3   force =     0.05011527    0.00000000    0.16335560
     atom   24 type  3   force =    -0.05011527    0.00000000   -0.16335560

     Total force =     0.609186     Total SCF correction =     0.000352


     Computing stress (Cartesian axis) and pressure


     negative rho (up, down):  4.567E-03 0.000E+00
          total   stress  (Ry/bohr**3)                   (kbar)     P=   62.21
   0.00079233   0.00000000   0.00000000        116.56      0.00      0.00
   0.00000000   0.00011731   0.00000000          0.00     17.26      0.00
   0.00000000   0.00000000   0.00035913          0.00      0.00     52.83


     number of scf cycles    =   2
     number of bfgs steps    =   1

     enthalpy old            =   -2039.8231114027 Ry
     enthalpy new            =   -2040.2858931377 Ry

     CASE: enthalpy_new < enthalpy_old

     new trust radius        =       0.1530673766 bohr
     new conv_thr            =       0.0000010000 Ry

     new unit-cell volume =   1609.50907 a.u.^3 (   238.50463 Ang^3 )
     density =      4.20011 g/cm^3

CELL_PARAMETERS (angstrom)
   9.474278854   0.000000000   0.000000000
   0.000000000   5.536584767   0.000000000
   0.000000000   0.000000000   4.546829886

ATOMIC_POSITIONS (angstrom)
Fe       2.145374997   4.152438576   2.070829638
Fe       7.328903857   1.384146192   2.476000248
Fe       2.591764430   1.384146192   4.344244581
Fe       6.882514424   4.152438576   0.202585305
P        0.914526110   1.384146192   1.828429134
P        8.559752744   4.152438576   2.718400752
P        3.822613317   4.152438576   4.101844077
P        5.651665537   1.384146192   0.444985809
O        1.629654538   0.201078501   1.116117259
O        7.844624316   5.335506266   3.430712627
O        3.107484889   5.335506266   3.389532202
O        6.366793965   0.201078501   1.157297684
O        6.366793965   2.567213883   1.157297684
O        3.107484889   2.969370885   3.389532202
O        7.844624316   2.969370885   3.430712627
O        1.629654538   2.567213883   1.116117259
O        0.569740499   4.152438576   3.006251438
O        8.904538355   1.384146192   1.540578448
O        4.167398928   1.384146192   0.732836495
O        5.306879926   4.152438576   3.813993391
O        1.127421783   1.384146192   3.330275645
O        8.346857071   4.152438576   1.216554241
O        3.609717644   4.152438576   1.056860702
O        5.864561210   1.384146192   3.489969184



     Writing output data file VLAB.save/
     Message from routine punch:
     wavefunctions written to file
     NEW-OLD atomic charge density approx. for the potential

     Check: negative core charge=   -0.002711

     negative rho (up, down):  2.747E-03 0.000E+00
     extrapolated charge  174.44858, renormalised to  180.00000

     total cpu time spent up to now is       14.8 secs

     Self-consistent Calculation

     iteration #  1     ecut=    30.00 Ry     beta= 0.50
     Davidson diagonalization with overlap
     c_bands:  1 eigenvalues not converged
     ethr =  1.00E-06,  avg # of iterations = 20.0

     negative rho (up, down):  2.807E-03 0.000E+00

     total cpu time spent up to now is       15.7 secs

     total energy              =   -2015.55391526 Ry
     Harris-Foulkes estimate   =   -2068.70339615 Ry
     estimated scf accuracy    <      31.00467785 Ry

     iteration #  2     ecut=    30.00 Ry     beta= 0.50
     Davidson diagonalization with overlap
     ethr =  1.00E-02,  avg # of iterations =  5.0

     negative rho (up, down):  8.508E-05 0.000E+00

     total cpu time spent up to now is       15.9 secs

     total energy              =   -2037.48535074 Ry
     Harris-Foulkes estimate   =   -2084.87698290 Ry
     estimated scf accuracy    <     185.86285892 Ry

     iteration #  3     ecut=    30.00 Ry     beta= 0.50
     Davidson diagonalization with overlap
     ethr =  1.00E-02,  avg # of iterations =  4.0

     negative rho (up, down):  3.989E-05 0.000E+00

     total cpu time spent up to now is       16.2 secs

     total energy              =   -2041.27897809 Ry
     Harris-Foulkes estimate   =   -2044.03863247 Ry
     estimated scf accuracy    <      23.08948970 Ry

     iteration #  4     ecut=    30.00 Ry     beta= 0.50
     Davidson diagonalization with overlap
     ethr =  1.00E-02,  avg # of iterations =  2.0

     negative rho (up, down):  1.709E-04 0.000E+00

     total cpu time spent up to now is       16.3 secs

     total energy              =   -2041.30162407 Ry
     Harris-Foulkes estimate   =   -2041.84564483 Ry
     estimated scf accuracy    <       8.00966451 Ry

     iteration #  5     ecut=    30.00 Ry     beta= 0.50
     Davidson diagonalization with overlap
     ethr =  4.45E-03,  avg # of iterations =  2.0

     negative rho (up, down):  7.191E-04 0.000E+00

     total cpu time spent up to now is       16.5 secs

     total energy              =   -2040.96905807 Ry
     Harris-Foulkes estimate   =   -2041.41565418 Ry
     estimated scf accuracy    <       5.28341473 Ry

     iteration #  6     ecut=    30.00 Ry     beta= 0.50
     Davidson diagonalization with overlap
     ethr =  2.94E-03,  avg # of iterations =  3.0

     negative rho (up, down):  1.324E-03 0.000E+00

     total cpu time spent up to now is       16.7 secs

     total energy              =   -2040.63235108 Ry
     Harris-Foulkes estimate   =   -2041.03406570 Ry
     estimated scf accuracy    <       3.30473443 Ry

     iteration #  7     ecut=    30.00 Ry     beta= 0.50
     Davidson diagonalization with overlap
     ethr =  1.84E-03,  avg # of iterations =  2.0

     negative rho (up, down):  1.558E-03 0.000E+00

     total cpu time spent up to now is       16.8 secs

     total energy              =   -2040.57627636 Ry
     Harris-Foulkes estimate   =   -2040.69979178 Ry
     estimated scf accuracy    <       1.54815245 Ry

     iteration #  8     ecut=    30.00 Ry     beta= 0.50
     Davidson diagonalization with overlap
     ethr =  8.60E-04,  avg # of iterations =  1.0

     negative rho (up, down):  1.680E-03 0.000E+00

     total cpu time spent up to now is       17.0 secs

     total energy              =   -2040.50914702 Ry
     Harris-Foulkes estimate   =   -2040.59779546 Ry
     estimated scf accuracy    <       0.98174121 Ry

     iteration #  9     ecut=    30.00 Ry     beta= 0.50
     Davidson diagonalization with overlap
     ethr =  5.45E-04,  avg # of iterations =  1.0

     negative rho (up, down):  1.724E-03 0.000E+00

     total cpu time spent up to now is       17.1 secs

     total energy              =   -2040.48080416 Ry
     Harris-Foulkes estimate   =   -2040.52418460 Ry
     estimated scf accuracy    <       0.54108277 Ry

     iteration # 10     ecut=    30.00 Ry     beta= 0.50
     Davidson diagonalization with overlap
     ethr =  3.01E-04,  avg # of iterations =  1.0

     negative rho (up, down):  2.305E-03 0.000E+00

     total cpu time spent up to now is       17.2 secs

     total energy              =   -2040.38638796 Ry
     Harris-Foulkes estimate   =   -2040.49018483 Ry
     estimated scf accuracy    <       0.26756264 Ry

     iteration # 11     ecut=    30.00 Ry     beta= 0.50
     Davidson diagonalization with overlap
     ethr =  1.49E-04,  avg # of iterations =  3.0

     negative rho (up, down):  2.058E-03 0.000E+00

     total cpu time spent up to now is       17.4 secs

     total energy              =   -2040.47879250 Ry
     Harris-Foulkes estimate   =   -2040.49101226 Ry
     estimated scf accuracy    <       0.25649395 Ry

     iteration # 12     ecut=    30.00 Ry     beta= 0.50
     Davidson diagonalization with overlap
     ethr =  1.42E-04,  avg # of iterations =  1.0

     negative rho (up, down):  1.974E-03 0.000E+00

     total cpu time spent up to now is       17.6 secs

     total energy              =   -2040.47618537 Ry
     Harris-Foulkes estimate   =   -2040.48205410 Ry
     estimated scf accuracy    <       0.16847061 Ry

     iteration # 13     ecut=    30.00 Ry     beta= 0.50
     Davidson diagonalization with overlap
     ethr =  9.36E-05,  avg # of iterations =  1.0

     negative rho (up, down):  3.384E-03 0.000E+00

     total cpu time spent up to now is       17.7 secs

     total energy              =   -2040.47742173 Ry
     Harris-Foulkes estimate   =   -2040.47745867 Ry
     estimated scf accuracy    <       0.13263926 Ry

     iteration # 14     ecut=    30.00 Ry     beta= 0.50
     Davidson diagonalization with overlap
     ethr =  7.37E-05,  avg # of iterations =  2.0

     negative rho (up, down):  2.446E-03 0.000E+00

     total cpu time spent up to now is       17.9 secs

     total energy              =   -2040.45850492 Ry
     Harris-Foulkes estimate   =   -2040.50810607 Ry
     estimated scf accuracy    <       0.35514269 Ry

     iteration # 15     ecut=    30.00 Ry     beta= 0.50
     Davidson diagonalization with overlap
     ethr =  7.37E-05,  avg # of iterations =  1.0

     negative rho (up, down):  3.005E-03 0.000E+00

     total cpu time spent up to now is       18.0 secs

     total energy              =   -2040.47017716 Ry
     Harris-Foulkes estimate   =   -2040.47333432 Ry
     estimated scf accuracy    <       0.08834532 Ry

     iteration # 16     ecut=    30.00 Ry     beta= 0.50
     Davidson diagonalization with overlap
     ethr =  4.91E-05,  avg # of iterations =  1.0

     negative rho (up, down):  2.409E-03 0.000E+00

     total cpu time spent up to now is       18.2 secs

     total energy              =   -2040.45678735 Ry
     Harris-Foulkes estimate   =   -2040.47648073 Ry
     estimated scf accuracy    <       0.11562693 Ry

     iteration # 17     ecut=    30.00 Ry     beta= 0.50
     Davidson diagonalization with overlap
     ethr =  4.91E-05,  avg # of iterations =  1.0

     negative rho (up, down):  2.254E-03 0.000E+00

     total cpu time spent up to now is       18.3 secs

     total energy              =   -2040.46027620 Ry
     Harris-Foulkes estimate   =   -2040.46326386 Ry
     estimated scf accuracy    <       0.01026691 Ry

     iteration # 18     ecut=    30.00 Ry     beta= 0.50
     Davidson diagonalization with overlap
     ethr =  5.70E-06,  avg # of iterations =  2.0

     negative rho (up, down):  2.268E-03 0.000E+00

     total cpu time spent up to now is       18.5 secs

     total energy              =   -2040.46174027 Ry
     Harris-Foulkes estimate   =   -2040.46184287 Ry
     estimated scf accuracy    <       0.00057993 Ry

     iteration # 19     ecut=    30.00 Ry     beta= 0.50
     Davidson diagonalization with overlap
     ethr =  3.22E-07,  avg # of iterations =  3.0

     negative rho (up, down):  2.253E-03 0.000E+00

     total cpu time spent up to now is       18.7 secs

     total energy              =   -2040.46191987 Ry
     Harris-Foulkes estimate   =   -2040.46197416 Ry
     estimated scf accuracy    <       0.00087703 Ry

     iteration # 20     ecut=    30.00 Ry     beta= 0.50
     Davidson diagonalization with overlap
     ethr =  3.22E-07,  avg # of iterations =  1.0

     negative rho (up, down):  2.216E-03 0.000E+00

     total cpu time spent up to now is       18.8 secs

     total energy              =   -2040.46191826 Ry
     Harris-Foulkes estimate   =   -2040.46193639 Ry
     estimated scf accuracy    <       0.00036550 Ry

     iteration # 21     ecut=    30.00 Ry     beta= 0.50
     Davidson diagonalization with overlap
     ethr =  2.03E-07,  avg # of iterations =  1.0

     negative rho (up, down):  2.204E-03 0.000E+00

     total cpu time spent up to now is       19.0 secs

     total energy              =   -2040.46191023 Ry
     Harris-Foulkes estimate   =   -2040.46192536 Ry
     estimated scf accuracy    <       0.00014303 Ry

     iteration # 22     ecut=    30.00 Ry     beta= 0.50
     Davidson diagonalization with overlap
     ethr =  7.95E-08,  avg # of iterations =  1.0

     negative rho (up, down):  2.197E-03 0.000E+00

     total cpu time spent up to now is       19.1 secs

     total energy              =   -2040.46191038 Ry
     Harris-Foulkes estimate   =   -2040.46191443 Ry
     estimated scf accuracy    <       0.00002858 Ry

     iteration # 23     ecut=    30.00 Ry     beta= 0.50
     Davidson diagonalization with overlap
     ethr =  1.59E-08,  avg # of iterations =  1.0

     negative rho (up, down):  2.197E-03 0.000E+00

     total cpu time spent up to now is       19.3 secs

     total energy              =   -2040.46191119 Ry
     Harris-Foulkes estimate   =   -2040.46191179 Ry
     estimated scf accuracy    <       0.00000271 Ry

     iteration # 24     ecut=    30.00 Ry     beta= 0.50
     Davidson diagonalization with overlap
     ethr =  1.50E-09,  avg # of iterations =  3.0

     negative rho (up, down):  2.200E-03 0.000E+00

     total cpu time spent up to now is       19.5 secs

     End of self-consistent calculation

          k = 0.0000 0.0000 0.0000 (  5359 PWs)   bands (ev):

   -79.7399 -79.7399 -79.7396 -79.7395 -45.0918 -45.0885 -45.0838 -45.0838
   -45.0648 -45.0600 -45.0583 -45.0548 -44.6387 -44.6232 -44.6227 -44.6184
   -14.4960 -14.0566 -13.9871 -13.7014 -11.6216 -11.5794 -11.4994 -11.4824
   -11.4731 -11.4327 -11.2791 -11.2393 -11.2218 -11.1255 -11.1153 -10.8796
    -1.8923  -1.1740  -1.0220  -0.8399  -0.2983   0.1337   0.2883   0.4413
     0.4613   0.9039   1.1138   1.3483   1.4022   1.4222   1.4592   1.9651
     2.0948   2.3421   2.8115   2.9659   3.0992   3.1911   3.3652   3.3880
     3.4496   3.8049   3.8220   3.9335   4.1115   4.1753   4.2152   4.4985
     4.8298   4.8611   4.8667   4.8748   5.0622   5.0952   5.3783   5.5254
     5.5646   5.7121   5.7142   5.7598   5.8722   5.9731   6.1566   6.4361
     7.6042   7.7078   7.7300   7.7664   7.9228   7.9298   7.9713   7.9986
     8.0151   8.0995   8.1173   8.1897   9.6028   9.6460  10.1510  10.8276
    10.8402  10.9005  10.9279  11.2027  13.2758  15.3319  15.4592  16.1086
    16.1553  16.3613  16.3929  17.2557

     the Fermi energy is     8.1084 ev

!    total energy              =   -2040.46191113 Ry
     Harris-Foulkes estimate   =   -2040.46191138 Ry
     estimated scf accuracy    <       0.00000035 Ry

     The total energy is the sum of the following terms:

     one-electron contribution =    -962.53259603 Ry
     hartree contribution      =     579.96453045 Ry
     xc contribution           =    -278.86499657 Ry
     ewald contribution        =    -922.41904027 Ry
     one-center paw contrib.   =    -456.60777960 Ry
     smearing contrib. (-TS)   =      -0.00202911 Ry

     convergence has been achieved in  24 iterations

     negative rho (up, down):  2.200E-03 0.000E+00

     Forces acting on atoms (cartesian axes, Ry/au):

     atom    1 type  2   force =    -0.00918162    0.00000000    0.02331688
     atom    2 type  2   force =     0.00918162    0.00000000   -0.02331688
     atom    3 type  2   force =     0.00918162   -0.00000000    0.02331688
     atom    4 type  2   force =    -0.00918162   -0.00000000   -0.02331688
     atom    5 type  1   force =    -0.03435067    0.00000000    0.01585405
     atom    6 type  1   force =     0.03435067    0.00000000   -0.01585405
     atom    7 type  1   force =     0.03435067    0.00000000    0.01585405
     atom    8 type  1   force =    -0.03435067    0.00000000   -0.01585405
     atom    9 type  3   force =    -0.01111416   -0.01834553   -0.04107706
     atom   10 type  3   force =     0.01111416    0.01834553    0.04107706
     atom   11 type  3   force =     0.01111416    0.01834553   -0.04107706
     atom   12 type  3   force =    -0.01111416   -0.01834553    0.04107706
     atom   13 type  3   force =    -0.01111416    0.01834553    0.04107706
     atom   14 type  3   force =     0.01111416   -0.01834553   -0.04107706
     atom   15 type  3   force =     0.01111416   -0.01834553    0.04107706
     atom   16 type  3   force =    -0.01111416    0.01834553   -0.04107706
     atom   17 type  3   force =    -0.04094503    0.00000000    0.06649219
     atom   18 type  3   force =     0.04094503    0.00000000   -0.06649219
     atom   19 type  3   force =     0.04094503    0.00000000    0.06649219
     atom   20 type  3   force =    -0.04094503    0.00000000   -0.06649219
     atom   21 type  3   force =    -0.10134397    0.00000000   -0.02370161
     atom   22 type  3   force =     0.10134397    0.00000000    0.02370161
     atom   23 type  3   force =     0.10134397    0.00000000   -0.02370161
     atom   24 type  3   force =    -0.10134397    0.00000000    0.02370161

     Total force =     0.305183     Total SCF correction =     0.000401


     Computing stress (Cartesian axis) and pressure


     negative rho (up, down):  2.200E-03 0.000E+00
          total   stress  (Ry/bohr**3)                   (kbar)     P=   19.39
   0.00036748   0.00000000   0.00000000         54.06      0.00      0.00
   0.00000000   0.00024532   0.00000000          0.00     36.09      0.00
   0.00000000   0.00000000  -0.00021742          0.00      0.00    -31.98


     number of scf cycles    =   3
     number of bfgs steps    =   2

     enthalpy old            =   -2040.2858931377 Ry
     enthalpy new            =   -2040.4619111286 Ry

     CASE: enthalpy_new < enthalpy_old

     new trust radius        =       0.1262745833 bohr
     new conv_thr            =       0.0000010000 Ry

     new unit-cell volume =   1592.82357 a.u.^3 (   236.03210 Ang^3 )
     density =      4.24411 g/cm^3

CELL_PARAMETERS (angstrom)
   9.532016949   0.000000000   0.000000000
   0.000000000   5.526134329   0.000000000
   0.000000000   0.000000000   4.480895570

ATOMIC_POSITIONS (angstrom)
Fe       2.153379620   4.144600747   2.053344413
Fe       7.378637328   1.381533582   2.427551157
Fe       2.612628854   1.381533582   4.293792198
Fe       6.919388095   4.144600747   0.187103372
P        0.900952695   1.381533582   1.804143998
P        8.631064253   4.144600747   2.676751572
P        3.865055779   4.144600747   4.044591783
P        5.666961169   1.381533582   0.436303787
O        1.641086077   0.173427245   1.063937724
O        7.890930871   5.352707084   3.416957845
O        3.124922397   5.352707084   3.304385509
O        6.407094551   0.173427245   1.176510061
O        6.407094551   2.589639919   1.176510061
O        3.124922397   2.936494410   3.304385509
O        7.890930871   2.936494410   3.416957845
O        1.641086077   2.589639919   1.063937724
O        0.568582773   4.144600747   3.011369282
O        8.963434176   1.381533582   1.469526288
O        4.197425702   1.381533582   0.770921497
O        5.334591247   4.144600747   3.709974073
O        1.068473683   1.381533582   3.295399148
O        8.463543266   4.144600747   1.185496422
O        3.697534791   4.144600747   1.054951363
O        5.834482157   1.381533582   3.425944207



     Writing output data file VLAB.save/
     Message from routine punch:
     wavefunctions written to file
     NEW-OLD atomic charge density approx. for the potential

     Check: negative core charge=   -0.002658

     negative rho (up, down):  1.338E-03 0.000E+00
     extrapolated charge  178.11445, renormalised to  180.00000

     total cpu time spent up to now is       19.9 secs

     Self-consistent Calculation

     iteration #  1     ecut=    30.00 Ry     beta= 0.50
     Davidson diagonalization with overlap
     ethr =  1.00E-06,  avg # of iterations = 15.0

     negative rho (up, down):  1.519E-03 0.000E+00

     total cpu time spent up to now is       20.4 secs

     total energy              =   -2038.57486413 Ry
     Harris-Foulkes estimate   =   -2049.17495829 Ry
     estimated scf accuracy    <       2.36973440 Ry

     iteration #  2     ecut=    30.00 Ry     beta= 0.50
     Davidson diagonalization with overlap
     ethr =  1.32E-03,  avg # of iterations =  5.0

     negative rho (up, down):  7.916E-04 0.000E+00

     total cpu time spent up to now is       20.7 secs

     total energy              =   -2038.82072684 Ry
     Harris-Foulkes estimate   =   -2043.74552865 Ry
     estimated scf accuracy    <      22.67361349 Ry

     iteration #  3     ecut=    30.00 Ry     beta= 0.50
     Davidson diagonalization with overlap
     ethr =  1.32E-03,  avg # of iterations =  3.0

     negative rho (up, down):  8.590E-04 0.000E+00

     total cpu time spent up to now is       20.9 secs

     total energy              =   -2040.66117378 Ry
     Harris-Foulkes estimate   =   -2040.77155654 Ry
     estimated scf accuracy    <       1.45440537 Ry

     iteration #  4     ecut=    30.00 Ry     beta= 0.50
     Davidson diagonalization with overlap
     ethr =  8.08E-04,  avg # of iterations =  1.0

     negative rho (up, down):  9.805E-04 0.000E+00

     total cpu time spent up to now is       21.0 secs

     total energy              =   -2040.48628519 Ry
     Harris-Foulkes estimate   =   -2040.67980919 Ry
     estimated scf accuracy    <       0.99595972 Ry

     iteration #  5     ecut=    30.00 Ry     beta= 0.50
     Davidson diagonalization with overlap
     ethr =  5.53E-04,  avg # of iterations =  2.0

     negative rho (up, down):  9.908E-04 0.000E+00

     total cpu time spent up to now is       21.2 secs

     total energy              =   -2040.54390206 Ry
     Harris-Foulkes estimate   =   -2040.55851183 Ry
     estimated scf accuracy    <       0.20959217 Ry

     iteration #  6     ecut=    30.00 Ry     beta= 0.50
     Davidson diagonalization with overlap
     ethr =  1.16E-04,  avg # of iterations =  1.0

     negative rho (up, down):  1.000E-03 0.000E+00

     total cpu time spent up to now is       21.3 secs

     total energy              =   -2040.54741502 Ry
     Harris-Foulkes estimate   =   -2040.55038978 Ry
     estimated scf accuracy    <       0.10219948 Ry

     iteration #  7     ecut=    30.00 Ry     beta= 0.50
     Davidson diagonalization with overlap
     ethr =  5.68E-05,  avg # of iterations =  1.0

     negative rho (up, down):  9.988E-04 0.000E+00

     total cpu time spent up to now is       21.5 secs

     total energy              =   -2040.53335253 Ry
     Harris-Foulkes estimate   =   -2040.55279919 Ry
     estimated scf accuracy    <       0.16212140 Ry

     iteration #  8     ecut=    30.00 Ry     beta= 0.50
     Davidson diagonalization with overlap
     ethr =  5.68E-05,  avg # of iterations =  1.0

     negative rho (up, down):  9.983E-04 0.000E+00

     total cpu time spent up to now is       21.6 secs

     total energy              =   -2040.53937055 Ry
     Harris-Foulkes estimate   =   -2040.54142284 Ry
     estimated scf accuracy    <       0.00945739 Ry

     iteration #  9     ecut=    30.00 Ry     beta= 0.50
     Davidson diagonalization with overlap
     ethr =  5.25E-06,  avg # of iterations =  3.0

     negative rho (up, down):  9.761E-04 0.000E+00

     total cpu time spent up to now is       21.8 secs

     total energy              =   -2040.54162375 Ry
     Harris-Foulkes estimate   =   -2040.54173308 Ry
     estimated scf accuracy    <       0.00237054 Ry

     iteration # 10     ecut=    30.00 Ry     beta= 0.50
     Davidson diagonalization with overlap
     ethr =  1.32E-06,  avg # of iterations =  1.0

     negative rho (up, down):  9.675E-04 0.000E+00

     total cpu time spent up to now is       22.0 secs

     total energy              =   -2040.54171413 Ry
     Harris-Foulkes estimate   =   -2040.54169151 Ry
     estimated scf accuracy    <       0.00138706 Ry

     iteration # 11     ecut=    30.00 Ry     beta= 0.50
     Davidson diagonalization with overlap
     ethr =  7.71E-07,  avg # of iterations =  1.0

     negative rho (up, down):  9.663E-04 0.000E+00

     total cpu time spent up to now is       22.1 secs

     total energy              =   -2040.54168138 Ry
     Harris-Foulkes estimate   =   -2040.54173103 Ry
     estimated scf accuracy    <       0.00127706 Ry

     iteration # 12     ecut=    30.00 Ry     beta= 0.50
     Davidson diagonalization with overlap
     ethr =  7.09E-07,  avg # of iterations =  1.0

     negative rho (up, down):  9.690E-04 0.000E+00

     total cpu time spent up to now is       22.2 secs

     total energy              =   -2040.54165236 Ry
     Harris-Foulkes estimate   =   -2040.54169319 Ry
     estimated scf accuracy    <       0.00064937 Ry

     iteration # 13     ecut=    30.00 Ry     beta= 0.50
     Davidson diagonalization with overlap
     ethr =  3.61E-07,  avg # of iterations =  1.0

     negative rho (up, down):  9.724E-04 0.000E+00

     total cpu time spent up to now is       22.4 secs

     total energy              =   -2040.54164951 Ry
     Harris-Foulkes estimate   =   -2040.54166194 Ry
     estimated scf accuracy    <       0.00024554 Ry

     iteration # 14     ecut=    30.00 Ry     beta= 0.50
     Davidson diagonalization with overlap
     ethr =  1.36E-07,  avg # of iterations =  1.0

     negative rho (up, down):  9.778E-04 0.000E+00

     total cpu time spent up to now is       22.5 secs

     total energy              =   -2040.54164820 Ry
     Harris-Foulkes estimate   =   -2040.54165391 Ry
     estimated scf accuracy    <       0.00009269 Ry

     iteration # 15     ecut=    30.00 Ry     beta= 0.50
     Davidson diagonalization with overlap
     ethr =  5.15E-08,  avg # of iterations =  1.0

     negative rho (up, down):  9.823E-04 0.000E+00

     total cpu time spent up to now is       22.7 secs

     total energy              =   -2040.54164362 Ry
     Harris-Foulkes estimate   =   -2040.54165094 Ry
     estimated scf accuracy    <       0.00002536 Ry

     iteration # 16     ecut=    30.00 Ry     beta= 0.50
     Davidson diagonalization with overlap
     ethr =  1.41E-08,  avg # of iterations =  1.0

     negative rho (up, down):  9.825E-04 0.000E+00

     total cpu time spent up to now is       22.8 secs

     total energy              =   -2040.54164783 Ry
     Harris-Foulkes estimate   =   -2040.54164774 Ry
     estimated scf accuracy    <       0.00000104 Ry

     iteration # 17     ecut=    30.00 Ry     beta= 0.50
     Davidson diagonalization with overlap
     ethr =  5.75E-10,  avg # of iterations =  3.0

     negative rho (up, down):  9.829E-04 0.000E+00

     total cpu time spent up to now is       23.0 secs

     End of self-consistent calculation

          k = 0.0000 0.0000 0.0000 (  5359 PWs)   bands (ev):

   -79.5796 -79.5792 -79.5792 -79.5791 -44.8730 -44.8671 -44.8654 -44.8650
   -44.8631 -44.8587 -44.8586 -44.8579 -44.5862 -44.5704 -44.5694 -44.5656
   -14.1795 -13.6904 -13.6816 -13.3452 -11.4672 -11.3255 -11.2577 -11.2300
   -11.1343 -11.0839 -11.0737 -10.9908 -10.9245 -10.9187 -10.8785 -10.7453
    -1.5908  -0.9008  -0.7711  -0.7609  -0.0547   0.3366   0.5126   0.7013
     0.7198   1.1188   1.4243   1.6043   1.6150   1.6552   1.7157   2.2786
     2.3148   2.6085   3.0357   3.1703   3.2733   3.4813   3.5860   3.6977
     3.7663   3.9035   4.0544   4.2294   4.2932   4.3432   4.4376   4.7692
     4.9602   5.0016   5.0293   5.1402   5.4103   5.4129   5.5906   5.6876
     5.7249   5.9240   5.9666   6.0188   6.0291   6.1063   6.3203   6.5965
     7.6875   7.7082   7.7657   7.8436   7.8445   8.1229   8.1843   8.1990
     8.2065   8.2126   8.2421   8.2774   9.8102   9.8603  10.2197  10.9277
    10.9631  11.2623  11.2688  11.2899  13.2836  15.1866  15.3812  15.9849
    16.1506  16.2362  16.4440  17.2373

     the Fermi energy is     8.2318 ev

!    total energy              =   -2040.54164803 Ry
     Harris-Foulkes estimate   =   -2040.54164809 Ry
     estimated scf accuracy    <       0.00000003 Ry

     The total energy is the sum of the following terms:

     one-electron contribution =    -935.80321963 Ry
     hartree contribution      =     567.79026035 Ry
     xc contribution           =    -278.53472836 Ry
     ewald contribution        =    -937.35311989 Ry
     one-center paw contrib.   =    -456.63831582 Ry
     smearing contrib. (-TS)   =      -0.00252468 Ry

     convergence has been achieved in  17 iterations

     negative rho (up, down):  9.829E-04 0.000E+00

     Forces acting on atoms (cartesian axes, Ry/au):

     atom    1 type  2   force =     0.02049868   -0.00000000    0.01219879
     atom    2 type  2   force =    -0.02049868   -0.00000000   -0.01219879
     atom    3 type  2   force =    -0.02049868    0.00000000    0.01219879
     atom    4 type  2   force =     0.02049868    0.00000000   -0.01219879
     atom    5 type  1   force =    -0.00043469   -0.00000000   -0.04567056
     atom    6 type  1   force =     0.00043469   -0.00000000    0.04567056
     atom    7 type  1   force =     0.00043469    0.00000000   -0.04567056
     atom    8 type  1   force =    -0.00043469    0.00000000    0.04567056
     atom    9 type  3   force =    -0.03205076    0.02134012   -0.00832850
     atom   10 type  3   force =     0.03205076   -0.02134012    0.00832850
     atom   11 type  3   force =     0.03205076   -0.02134012   -0.00832850
     atom   12 type  3   force =    -0.03205076    0.02134012    0.00832850
     atom   13 type  3   force =    -0.03205076   -0.02134012    0.00832850
     atom   14 type  3   force =     0.03205076    0.02134012   -0.00832850
     atom   15 type  3   force =     0.03205076    0.02134012    0.00832850
     atom   16 type  3   force =    -0.03205076   -0.02134012   -0.00832850
     atom   17 type  3   force =    -0.02166109    0.00000000    0.05837229
     atom   18 type  3   force =     0.02166109    0.00000000   -0.05837229
     atom   19 type  3   force =     0.02166109    0.00000000    0.05837229
     atom   20 type  3   force =    -0.02166109    0.00000000   -0.05837229
     atom   21 type  3   force =    -0.05105306   -0.00000000    0.00803534
     atom   22 type  3   force =     0.05105306    0.00000000   -0.00803534
     atom   23 type  3   force =     0.05105306    0.00000000    0.00803534
     atom   24 type  3   force =    -0.05105306    0.00000000   -0.00803534

     Total force =     0.221870     Total SCF correction =     0.000258


     Computing stress (Cartesian axis) and pressure


     negative rho (up, down):  9.829E-04 0.000E+00
          total   stress  (Ry/bohr**3)                   (kbar)     P=   -7.76
   0.00000723   0.00000000   0.00000000          1.06      0.00      0.00
   0.00000000  -0.00014600   0.00000000          0.00    -21.48      0.00
   0.00000000   0.00000000  -0.00001942          0.00      0.00     -2.86


     number of scf cycles    =   4
     number of bfgs steps    =   3

     enthalpy old            =   -2040.4619111286 Ry
     enthalpy new            =   -2040.5416480289 Ry

     CASE: enthalpy_new < enthalpy_old

     new trust radius        =       0.1826038312 bohr
     new conv_thr            =       0.0000010000 Ry

     new unit-cell volume =   1562.63364 a.u.^3 (   231.55841 Ang^3 )
     density =      4.32610 g/cm^3

CELL_PARAMETERS (angstrom)
   9.576624028   0.000000000   0.000000000
   0.000000000   5.471499987   0.000000000
   0.000000000   0.000000000   4.419180309

ATOMIC_POSITIONS (angstrom)
Fe       2.174750896   4.103624990   2.042892779
Fe       7.401873132   1.367874997   2.376287530
Fe       2.613561118   1.367874997   4.252482933
Fe       6.963062910   4.103624990   0.166697376
P        0.891074560   1.367874997   1.745111410
P        8.685549468   4.103624990   2.674068900
P        3.897237454   4.103624990   3.954701564
P        5.679386574   1.367874997   0.464478745
O        1.630085576   0.157156483   1.009568256
O        7.946538452   5.314343504   3.409612054
O        3.158226438   5.314343504   3.219158410
O        6.418397590   0.157156483   1.200021899
O        6.418397590   2.578593511   1.200021899
O        3.158226438   2.892906476   3.219158410
O        7.946538452   2.892906476   3.409612054
O        1.630085576   2.578593511   1.009568256
O        0.563179602   4.103624990   3.052947519
O        9.013444426   1.367874997   1.366232790
O        4.225132412   1.367874997   0.843357364
O        5.351491616   4.103624990   3.575822945
O        0.981731302   1.367874997   3.281180994
O        8.594892726   4.103624990   1.137999315
O        3.806580712   4.103624990   1.071590839
O        5.770043316   1.367874997   3.347589470



     Writing output data file VLAB.save/
     Message from routine punch:
     wavefunctions written to file
     NEW-OLD atomic charge density approx. for the potential

     Check: negative core charge=   -0.002584

     negative rho (up, down):  2.346E-04 0.000E+00
     extrapolated charge  176.52246, renormalised to  180.00000

     total cpu time spent up to now is       23.5 secs

     Self-consistent Calculation

     iteration #  1     ecut=    30.00 Ry     beta= 0.50
     Davidson diagonalization with overlap
     ethr =  1.00E-06,  avg # of iterations =  8.0

     negative rho (up, down):  2.754E-04 0.000E+00

     total cpu time spent up to now is       23.9 secs

     total energy              =   -2031.85752650 Ry
     Harris-Foulkes estimate   =   -2056.39176117 Ry
     estimated scf accuracy    <      10.74962954 Ry

     iteration #  2     ecut=    30.00 Ry     beta= 0.50
     Davidson diagonalization with overlap
     ethr =  5.97E-03,  avg # of iterations =  5.0

     negative rho (up, down):  4.730E-05 0.000E+00

     total cpu time spent up to now is       24.2 secs

     total energy              =   -2033.18308283 Ry
     Harris-Foulkes estimate   =   -2059.39736784 Ry
     estimated scf accuracy    <     132.91366385 Ry

     iteration #  3     ecut=    30.00 Ry     beta= 0.50
     Davidson diagonalization with overlap
     ethr =  5.97E-03,  avg # of iterations =  3.0

     negative rho (up, down):  7.146E-05 0.000E+00

     total cpu time spent up to now is       24.4 secs

     total energy              =   -2040.95177667 Ry
     Harris-Foulkes estimate   =   -2041.49957590 Ry
     estimated scf accuracy    <       5.04118704 Ry

     iteration #  4     ecut=    30.00 Ry     beta= 0.50
     Davidson diagonalization with overlap
     ethr =  2.80E-03,  avg # of iterations =  1.0

     negative rho (up, down):  9.924E-05 0.000E+00

     total cpu time spent up to now is       24.6 secs

     total energy              =   -2040.72604673 Ry
     Harris-Foulkes estimate   =   -2041.06096231 Ry
     estimated scf accuracy    <       3.03075433 Ry

     iteration #  5     ecut=    30.00 Ry     beta= 0.50
     Davidson diagonalization with overlap
     ethr =  1.68E-03,  avg # of iterations =  1.0

     negative rho (up, down):  1.281E-04 0.000E+00

     total cpu time spent up to now is       24.8 secs

     total energy              =   -2040.65713647 Ry
     Harris-Foulkes estimate   =   -2040.79775733 Ry
     estimated scf accuracy    <       1.48416224 Ry

     iteration #  6     ecut=    30.00 Ry     beta= 0.50
     Davidson diagonalization with overlap
     ethr =  8.25E-04,  avg # of iterations =  1.0

     negative rho (up, down):  1.369E-04 0.000E+00

     total cpu time spent up to now is       24.9 secs

     total energy              =   -2040.61491070 Ry
     Harris-Foulkes estimate   =   -2040.69371814 Ry
     estimated scf accuracy    <       0.85800219 Ry

     iteration #  7     ecut=    30.00 Ry     beta= 0.50
     Davidson diagonalization with overlap
     ethr =  4.77E-04,  avg # of iterations =  1.0

     negative rho (up, down):  1.312E-04 0.000E+00

     total cpu time spent up to now is       25.1 secs

     total energy              =   -2040.63268522 Ry
     Harris-Foulkes estimate   =   -2040.63514381 Ry
     estimated scf accuracy    <       0.40230263 Ry

     iteration #  8     ecut=    30.00 Ry     beta= 0.50
     Davidson diagonalization with overlap
     ethr =  2.24E-04,  avg # of iterations =  1.0

     negative rho (up, down):  1.368E-04 0.000E+00

     total cpu time spent up to now is       25.2 secs

     total energy              =   -2040.57496635 Ry
     Harris-Foulkes estimate   =   -2040.63989268 Ry
     estimated scf accuracy    <       0.45147785 Ry

     iteration #  9     ecut=    30.00 Ry     beta= 0.50
     Davidson diagonalization with overlap
     ethr =  2.24E-04,  avg # of iterations =  1.0

     negative rho (up, down):  1.316E-04 0.000E+00

     total cpu time spent up to now is       25.4 secs

     total energy              =   -2040.59472607 Ry
     Harris-Foulkes estimate   =   -2040.60082082 Ry
     estimated scf accuracy    <       0.06601253 Ry

     iteration # 10     ecut=    30.00 Ry     beta= 0.50
     Davidson diagonalization with overlap
     ethr =  3.67E-05,  avg # of iterations =  6.0

     negative rho (up, down):  1.258E-04 0.000E+00

     total cpu time spent up to now is       25.6 secs

     total energy              =   -2040.59832271 Ry
     Harris-Foulkes estimate   =   -2040.60057569 Ry
     estimated scf accuracy    <       0.01778772 Ry

     iteration # 11     ecut=    30.00 Ry     beta= 0.50
     Davidson diagonalization with overlap
     ethr =  9.88E-06,  avg # of iterations =  3.0

     negative rho (up, down):  1.160E-04 0.000E+00

     total cpu time spent up to now is       25.8 secs

     total energy              =   -2040.59859414 Ry
     Harris-Foulkes estimate   =   -2040.60028157 Ry
     estimated scf accuracy    <       0.01731029 Ry

     iteration # 12     ecut=    30.00 Ry     beta= 0.50
     Davidson diagonalization with overlap
     ethr =  9.62E-06,  avg # of iterations =  1.0

     negative rho (up, down):  1.160E-04 0.000E+00

     total cpu time spent up to now is       25.9 secs

     total energy              =   -2040.59939089 Ry
     Harris-Foulkes estimate   =   -2040.59953138 Ry
     estimated scf accuracy    <       0.00208697 Ry

     iteration # 13     ecut=    30.00 Ry     beta= 0.50
     Davidson diagonalization with overlap
     ethr =  1.16E-06,  avg # of iterations =  2.0

     negative rho (up, down):  1.177E-04 0.000E+00

     total cpu time spent up to now is       26.1 secs

     total energy              =   -2040.59943127 Ry
     Harris-Foulkes estimate   =   -2040.59944937 Ry
     estimated scf accuracy    <       0.00125459 Ry

     iteration # 14     ecut=    30.00 Ry     beta= 0.50
     Davidson diagonalization with overlap
     ethr =  6.97E-07,  avg # of iterations =  1.0

     negative rho (up, down):  1.181E-04 0.000E+00

     total cpu time spent up to now is       26.2 secs

     total energy              =   -2040.59941140 Ry
     Harris-Foulkes estimate   =   -2040.59945723 Ry
     estimated scf accuracy    <       0.00082429 Ry

     iteration # 15     ecut=    30.00 Ry     beta= 0.50
     Davidson diagonalization with overlap
     ethr =  4.58E-07,  avg # of iterations =  1.0

     negative rho (up, down):  1.188E-04 0.000E+00

     total cpu time spent up to now is       26.3 secs

     total energy              =   -2040.59940198 Ry
     Harris-Foulkes estimate   =   -2040.59942955 Ry
     estimated scf accuracy    <       0.00035030 Ry

     iteration # 16     ecut=    30.00 Ry     beta= 0.50
     Davidson diagonalization with overlap
     ethr =  1.95E-07,  avg # of iterations =  1.0

     negative rho (up, down):  1.193E-04 0.000E+00

     total cpu time spent up to now is       26.5 secs

     total energy              =   -2040.59939383 Ry
     Harris-Foulkes estimate   =   -2040.59941022 Ry
     estimated scf accuracy    <       0.00015940 Ry

     iteration # 17     ecut=    30.00 Ry     beta= 0.50
     Davidson diagonalization with overlap
     ethr =  8.86E-08,  avg # of iterations =  1.0

     negative rho (up, down):  1.199E-04 0.000E+00

     total cpu time spent up to now is       26.6 secs

     total energy              =   -2040.59938985 Ry
     Harris-Foulkes estimate   =   -2040.59939880 Ry
     estimated scf accuracy    <       0.00004497 Ry

     iteration # 18     ecut=    30.00 Ry     beta= 0.50
     Davidson diagonalization with overlap
     ethr =  2.50E-08,  avg # of iterations =  1.0

     negative rho (up, down):  1.202E-04 0.000E+00

     total cpu time spent up to now is       26.8 secs

     total energy              =   -2040.59939200 Ry
     Harris-Foulkes estimate   =   -2040.59939283 Ry
     estimated scf accuracy    <       0.00000560 Ry

     iteration # 19     ecut=    30.00 Ry     beta= 0.50
     Davidson diagonalization with overlap
     ethr =  3.11E-09,  avg # of iterations =  3.0

     negative rho (up, down):  1.204E-04 0.000E+00

     total cpu time spent up to now is       26.9 secs

     total energy              =   -2040.59939198 Ry
     Harris-Foulkes estimate   =   -2040.59939242 Ry
     estimated scf accuracy    <       0.00000164 Ry

     iteration # 20     ecut=    30.00 Ry     beta= 0.50
     Davidson diagonalization with overlap
     ethr =  9.09E-10,  avg # of iterations =  2.0

     negative rho (up, down):  1.207E-04 0.000E+00

     total cpu time spent up to now is       27.1 secs

     End of self-consistent calculation

          k = 0.0000 0.0000 0.0000 (  5359 PWs)   bands (ev):

   -79.2530 -79.2530 -79.2529 -79.2525 -44.6688 -44.6558 -44.6542 -44.6484
   -44.4440 -44.4293 -44.4286 -44.4241 -44.2909 -44.2897 -44.2891 -44.2819
   -13.8483 -13.3716 -13.3469 -12.9877 -11.0843 -10.9567 -10.9235 -10.9053
   -10.8998 -10.8598 -10.7671 -10.7259 -10.5203 -10.4862 -10.3159 -10.1525
    -1.1409  -0.6186  -0.4922  -0.4074   0.2266   0.6074   0.9036   0.9147
     1.0634   1.4339   1.7942   1.8658   2.0214   2.1228   2.1966   2.4833
     2.7562   3.1062   3.2307   3.2692   3.6112   3.9155   3.9186   4.0597
     4.1716   4.2041   4.4036   4.6014   4.6915   4.7477   4.7700   5.1524
     5.3779   5.4103   5.4568   5.7090   5.7414   5.7713   5.8563   6.0687
     6.1919   6.2669   6.3414   6.3886   6.5030   6.5426   6.6257   7.0201
     7.7992   7.8714   7.9624   8.0122   8.1571   8.3941   8.4469   8.4546
     8.4778   8.4792   8.4840   8.5577  10.1305  10.1650  10.5407  11.1978
    11.2936  11.4557  11.6481  11.6544  13.4458  15.0043  15.5543  16.1490
    16.3375  16.3703  16.7102  16.7656

     the Fermi energy is     8.4895 ev

!    total energy              =   -2040.59939188 Ry
     Harris-Foulkes estimate   =   -2040.59939213 Ry
     estimated scf accuracy    <       0.00000027 Ry

     The total energy is the sum of the following terms:

     one-electron contribution =    -895.94182427 Ry
     hartree contribution      =     549.99301602 Ry
     xc contribution           =    -278.29878947 Ry
     ewald contribution        =    -959.67487869 Ry
     one-center paw contrib.   =    -456.67360531 Ry
     smearing contrib. (-TS)   =      -0.00331016 Ry

     convergence has been achieved in  20 iterations

     negative rho (up, down):  1.207E-04 0.000E+00

     Forces acting on atoms (cartesian axes, Ry/au):

     atom    1 type  2   force =     0.00938255    0.00000000   -0.00805429
     atom    2 type  2   force =    -0.00938255    0.00000000    0.00805429
     atom    3 type  2   force =    -0.00938255   -0.00000000   -0.00805429
     atom    4 type  2   force =     0.00938255   -0.00000000    0.00805429
     atom    5 type  1   force =    -0.01343470    0.00000000    0.01801358
     atom    6 type  1   force =     0.01343470    0.00000000   -0.01801358
     atom    7 type  1   force =     0.01343470   -0.00000000    0.01801358
     atom    8 type  1   force =    -0.01343470   -0.00000000   -0.01801358
     atom    9 type  3   force =    -0.02262457   -0.00303343    0.01612286
     atom   10 type  3   force =     0.02262457    0.00303343   -0.01612286
     atom   11 type  3   force =     0.02262457    0.00303343    0.01612286
     atom   12 type  3   force =    -0.02262457   -0.00303343   -0.01612286
     atom   13 type  3   force =    -0.02262457    0.00303343   -0.01612286
     atom   14 type  3   force =     0.02262457   -0.00303343    0.01612286
     atom   15 type  3   force =     0.02262457   -0.00303343   -0.01612286
     atom   16 type  3   force =    -0.02262457    0.00303343    0.01612286
     atom   17 type  3   force =     0.01995365    0.00000000    0.03837449
     atom   18 type  3   force =    -0.01995365    0.00000000   -0.03837449
     atom   19 type  3   force =    -0.01995365    0.00000000    0.03837449
     atom   20 type  3   force =     0.01995365    0.00000000   -0.03837449
     atom   21 type  3   force =    -0.00882205    0.00000000   -0.05320440
     atom   22 type  3   force =     0.00882205    0.00000000    0.05320440
     atom   23 type  3   force =     0.00882205    0.00000000   -0.05320440
     atom   24 type  3   force =    -0.00882205    0.00000000    0.05320440

     Total force =     0.167323     Total SCF correction =     0.000456


     Computing stress (Cartesian axis) and pressure


     negative rho (up, down):  1.207E-04 0.000E+00
          total   stress  (Ry/bohr**3)                   (kbar)     P=  -13.33
  -0.00015874   0.00000000   0.00000000        -23.35      0.00      0.00
   0.00000000   0.00021588   0.00000000          0.00     31.76      0.00
   0.00000000   0.00000000  -0.00032895          0.00      0.00    -48.39


     number of scf cycles    =   5
     number of bfgs steps    =   4

     enthalpy old            =   -2040.5416480289 Ry
     enthalpy new            =   -2040.5993918796 Ry

     CASE: enthalpy_new < enthalpy_old

     new trust radius        =       0.1055461079 bohr
     new conv_thr            =       0.0000010000 Ry

     new unit-cell volume =   1547.59564 a.u.^3 (   229.33001 Ang^3 )
     density =      4.36814 g/cm^3

CELL_PARAMETERS (angstrom)
   9.577028492   0.000000000   0.000000000
   0.000000000   5.485551863   0.000000000
   0.000000000   0.000000000   4.365256689

ATOMIC_POSITIONS (angstrom)
Fe       2.184089744   4.114163898   2.021138034
Fe       7.392938748   1.371387966   2.344118655
Fe       2.604424502   1.371387966   4.203766378
Fe       6.972603990   4.114163898   0.161490310
P        0.879116012   1.371387966   1.715863694
P        8.697912480   4.114163898   2.649392995
P        3.909398234   4.114163898   3.898492039
P        5.667630258   1.371387966   0.466764650
O        1.611665285   0.147000965   0.987647277
O        7.965363207   5.338550898   3.377609412
O        3.176848961   5.338550898   3.170275621
O        6.400179531   0.147000965   1.194981068
O        6.400179531   2.595774967   1.194981068
O        3.176848961   2.889776897   3.170275621
O        7.965363207   2.889776897   3.377609412
O        1.611665285   2.595774967   0.987647277
O        0.577197520   4.114163898   3.069106313
O        8.999830972   1.371387966   1.296150376
O        4.211316726   1.371387966   0.886477968
O        5.365711766   4.114163898   3.478778721
O        0.941085134   1.371387966   3.234768090
O        8.635943358   4.114163898   1.130488599
O        3.847429112   4.114163898   1.052139745
O        5.729599380   1.371387966   3.313116944



     Writing output data file VLAB.save/
     Message from routine punch:
[...]

ATOMIC_POSITIONS (angstrom)
Fe       2.202018680   4.108727670   1.952869399
Fe       7.165340709   1.369575890   2.453826462
Fe       2.481661014   1.369575890   4.156217330
Fe       6.885698375   4.108727670   0.250478531
P        0.716444459   1.369575890   1.571386041
P        8.650914930   4.108727670   2.835309820
P        3.967235236   4.108727670   3.774733971
P        5.400124154   1.369575890   0.631961890
O        1.460057164   0.128045897   0.907291780
O        7.907302225   5.350257662   3.499404081
O        3.223622531   5.350257662   3.110639711
O        6.143736858   0.128045897   1.296056150
O        6.143736858   2.611105883   1.296056150
O        3.223622531   2.867197677   3.110639711
O        7.907302225   2.867197677   3.499404081
O        1.460057164   2.611105883   0.907291780
O        0.757124313   4.108727670   3.216752811
O        8.610235076   1.369575890   1.189943050
O        3.926555381   1.369575890   1.013404880
O        5.440804008   4.108727670   3.393290981
O        0.891307245   1.369575890   3.078390585
O        8.476052145   4.108727670   1.328305276
O        3.792372450   4.108727670   0.875042655
O        5.574986939   1.369575890   3.531653206
End final coordinates



     Writing output data file VLAB.save/
     Message from routine punch:
     wavefunctions written to file

     A final scf calculation at the relaxed structure.
     The G-vectors are recalculated for the final unit cell
     Results may differ from those at the preceding step.
 
     Parallelization info
     --------------------
     sticks:   dense  smooth     PW     G-vecs:    dense   smooth      PW
     Min          36      36      9                  704      704      87
     Max          37      37     10                  707      707      89
     Sum        1753    1753    437                33877    33877    4227
 


     bravais-lattice index     =            0
     lattice parameter (alat)  =      18.8524  a.u.
     unit-cell volume          =    1526.0647 (a.u.)^3
     number of atoms/cell      =           24
     number of atomic types    =            3
     number of electrons       =       180.00
     number of Kohn-Sham states=          108
     kinetic-energy cutoff     =      30.0000  Ry
     charge density cutoff     =     120.0000  Ry
     convergence threshold     =      1.0E-07
     mixing beta               =       0.5000
     number of iterations used =            8  plain     mixing
     Exchange-correlation      = SLA PW PBX PBC ( 1  4  3  4 0 0)

     celldm(1)=  18.852379  celldm(2)=   0.000000  celldm(3)=   0.000000
     celldm(4)=   0.000000  celldm(5)=   0.000000  celldm(6)=   0.000000

     crystal axes: (cart. coord. in units of alat)
               a(1) = (   0.938966   0.000000   0.000000 )  
               a(2) = (   0.000000   0.549135   0.000000 )  
               a(3) = (   0.000000   0.000000   0.441719 )  

     reciprocal axes: (cart. coord. in units 2 pi/alat)
               b(1) = (  1.065001  0.000000  0.000000 )  
               b(2) = (  0.000000  1.821047  0.000000 )  
               b(3) = (  0.000000  0.000000  2.263884 )  


     PseudoPot. # 1 for P  read from file:
     ./P.pbe-n-rrkjus_psl.1.0.0.UPF
     MD5 check sum: 8b930f418f0a4573dca56cd030ffe088
     Pseudo is Ultrasoft + core correction, Zval =  5.0
     Generated using "atomic" code by A. Dal Corso v.5.1
     Using radial grid of 1147 points,  6 beta functions with: 
                l(1) =   0
                l(2) =   0
                l(3) =   1
                l(4) =   1
                l(5) =   2
                l(6) =   2
     Q(r) pseudized with 0 coefficients 


     PseudoPot. # 2 for Fe read from file:
     ./Fe.pbe-spn-kjpaw_psl.0.2.1.UPF
     MD5 check sum: e86618425769142926afa95317d90200
     Pseudo is Projector augmented-wave + core cor, Zval = 16.0
     Generated using "atomic" code by A. Dal Corso v.5.0.99 svn rev. 10869
     Shape of augmentation charge: PSQ
     Using radial grid of 1191 points,  6 beta functions with: 
                l(1) =   0
                l(2) =   0
                l(3) =   1
                l(4) =   1
                l(5) =   2
                l(6) =   2
     Q(r) pseudized with 0 coefficients 


     PseudoPot. # 3 for O  read from file:
     ./O.pbe-n-kjpaw_psl.0.1.UPF
     MD5 check sum: 0234752ac141de4415c5fc33072bef88
     Pseudo is Projector augmented-wave + core cor, Zval =  6.0
     Generated using "atomic" code by A. Dal Corso v.5.0.99 svn rev. 10869
     Shape of augmentation charge: BESSEL
     Using radial grid of 1095 points,  4 beta functions with: 
                l(1) =   0
                l(2) =   0
                l(3) =   1
                l(4) =   1
     Q(r) pseudized with 0 coefficients 


     atomic species   valence    mass     pseudopotential
        P              5.00    30.97376     P ( 1.00)
        Fe            16.00    55.84500     Fe( 1.00)
        O              6.00    15.99940     O ( 1.00)

      8 Sym. Ops., with inversion, found ( 6 have fractional translation)



   Cartesian axes

     site n.     atom                  positions (alat units)
         1           Fe  tau(   1) = (   0.2207261   0.4118509   0.1957519  )
         2           Fe  tau(   2) = (   0.7182399   0.1372836   0.2459668  )
         3           Fe  tau(   3) = (   0.2487569   0.1372836   0.4166112  )
         4           Fe  tau(   4) = (   0.6902091   0.4118509   0.0251075  )
         5           P   tau(   5) = (   0.0718150   0.1372836   0.1575127  )
         6           P   tau(   6) = (   0.8671510   0.4118509   0.2842060  )
         7           P   tau(   7) = (   0.3976680   0.4118509   0.3783720  )
         8           P   tau(   8) = (   0.5412980   0.1372836   0.0633466  )
         9           O   tau(   9) = (   0.1463533   0.0128351   0.0909452  )
        10           O   tau(  10) = (   0.7926127   0.5362995   0.3507735  )
        11           O   tau(  11) = (   0.3231297   0.5362995   0.3118045  )
        12           O   tau(  12) = (   0.6158363   0.0128351   0.1299142  )
        13           O   tau(  13) = (   0.6158363   0.2617322   0.1299142  )
        14           O   tau(  14) = (   0.3231297   0.2874024   0.3118045  )
        15           O   tau(  15) = (   0.7926127   0.2874024   0.3507735  )
        16           O   tau(  16) = (   0.1463533   0.2617322   0.0909452  )
        17           O   tau(  17) = (   0.0758927   0.4118509   0.3224411  )
        18           O   tau(  18) = (   0.8630733   0.1372836   0.1192776  )
        19           O   tau(  19) = (   0.3935903   0.1372836   0.1015817  )
        20           O   tau(  20) = (   0.5453757   0.4118509   0.3401369  )
        21           O   tau(  21) = (   0.0893429   0.1372836   0.3085719  )
        22           O   tau(  22) = (   0.8496231   0.4118509   0.1331468  )
        23           O   tau(  23) = (   0.3801401   0.4118509   0.0877126  )
        24           O   tau(  24) = (   0.5588259   0.1372836   0.3540061  )

     number of k points=     1  gaussian smearing, width (Ry)=  0.0020
                       cart. coord. in units 2pi/alat
        k(    1) = (   0.0000000   0.0000000   0.0000000), wk =   2.0000000

     Dense  grid:    33877 G-vectors     FFT dimensions: (  64,  40,  30)

     Estimated max dynamical RAM per process >      19.72 MB

     Estimated total dynamical RAM >     946.38 MB

     Check: negative core charge=   -0.004036

     Initial potential from superposition of free atoms

     starting charge  179.99758, renormalised to  180.00000
     Starting wfcs are  132 randomized atomic wfcs
     Checking if some PAW data can be deallocated... 

     total cpu time spent up to now is       70.3 secs

     Self-consistent Calculation

     iteration #  1     ecut=    30.00 Ry     beta= 0.50
     Davidson diagonalization with overlap
     ethr =  1.00E-06,  avg # of iterations = 15.0

     total cpu time spent up to now is       70.9 secs

     total energy              =   -2037.40886685 Ry
     Harris-Foulkes estimate   =   -2041.07359104 Ry
     estimated scf accuracy    <       5.97659683 Ry

     iteration #  2     ecut=    30.00 Ry     beta= 0.50
     Davidson diagonalization with overlap
     ethr =  3.32E-03,  avg # of iterations =  2.0

     total cpu time spent up to now is       71.1 secs

     total energy              =   -2034.34415542 Ry
     Harris-Foulkes estimate   =   -2043.84891407 Ry
     estimated scf accuracy    <      43.84212393 Ry

     iteration #  3     ecut=    30.00 Ry     beta= 0.50
     Davidson diagonalization with overlap
     ethr =  3.32E-03,  avg # of iterations =  2.0

     total cpu time spent up to now is       71.2 secs

     total energy              =   -2039.70389918 Ry
     Harris-Foulkes estimate   =   -2040.13461394 Ry
     estimated scf accuracy    <       2.18690426 Ry

     iteration #  4     ecut=    30.00 Ry     beta= 0.50
     Davidson diagonalization with overlap
     ethr =  1.21E-03,  avg # of iterations =  2.0

     total cpu time spent up to now is       71.4 secs

     total energy              =   -2039.74968565 Ry
     Harris-Foulkes estimate   =   -2039.83947639 Ry
     estimated scf accuracy    <       0.66359374 Ry

     iteration #  5     ecut=    30.00 Ry     beta= 0.50
     Davidson diagonalization with overlap
     ethr =  3.69E-04,  avg # of iterations =  1.0

     total cpu time spent up to now is       71.5 secs

     total energy              =   -2039.76777021 Ry
     Harris-Foulkes estimate   =   -2039.80987075 Ry
     estimated scf accuracy    <       0.28184269 Ry

     iteration #  6     ecut=    30.00 Ry     beta= 0.50
     Davidson diagonalization with overlap
     ethr =  1.57E-04,  avg # of iterations =  2.0

     total cpu time spent up to now is       71.7 secs

     total energy              =   -2039.78173745 Ry
     Harris-Foulkes estimate   =   -2039.80236412 Ry
     estimated scf accuracy    <       0.14291566 Ry

     iteration #  7     ecut=    30.00 Ry     beta= 0.50
     Davidson diagonalization with overlap
     ethr =  7.94E-05,  avg # of iterations =  1.0

     total cpu time spent up to now is       71.8 secs

     total energy              =   -2039.79000284 Ry
     Harris-Foulkes estimate   =   -2039.79084430 Ry
     estimated scf accuracy    <       0.01403368 Ry

     iteration #  8     ecut=    30.00 Ry     beta= 0.50
     Davidson diagonalization with overlap
     ethr =  7.80E-06,  avg # of iterations =  4.0

     total cpu time spent up to now is       72.0 secs

     total energy              =   -2039.79030720 Ry
     Harris-Foulkes estimate   =   -2039.79078867 Ry
     estimated scf accuracy    <       0.00319635 Ry

     iteration #  9     ecut=    30.00 Ry     beta= 0.50
     Davidson diagonalization with overlap
     ethr =  1.78E-06,  avg # of iterations =  1.0

     total cpu time spent up to now is       72.1 secs

     total energy              =   -2039.79050500 Ry
     Harris-Foulkes estimate   =   -2039.79070679 Ry
     estimated scf accuracy    <       0.00382926 Ry

     iteration # 10     ecut=    30.00 Ry     beta= 0.50
     Davidson diagonalization with overlap
     ethr =  1.78E-06,  avg # of iterations =  1.0

     total cpu time spent up to now is       72.2 secs

     total energy              =   -2039.79061126 Ry
     Harris-Foulkes estimate   =   -2039.79062193 Ry
     estimated scf accuracy    <       0.00022570 Ry

     iteration # 11     ecut=    30.00 Ry     beta= 0.50
     Davidson diagonalization with overlap
     ethr =  1.25E-07,  avg # of iterations =  2.0

     total cpu time spent up to now is       72.4 secs

     total energy              =   -2039.79062450 Ry
     Harris-Foulkes estimate   =   -2039.79062511 Ry
     estimated scf accuracy    <       0.00004780 Ry

     iteration # 12     ecut=    30.00 Ry     beta= 0.50
     Davidson diagonalization with overlap
     ethr =  2.66E-08,  avg # of iterations =  2.0

     total cpu time spent up to now is       72.5 secs

     total energy              =   -2039.79062788 Ry
     Harris-Foulkes estimate   =   -2039.79062718 Ry
     estimated scf accuracy    <       0.00001070 Ry

     iteration # 13     ecut=    30.00 Ry     beta= 0.50
     Davidson diagonalization with overlap
     ethr =  5.95E-09,  avg # of iterations =  3.0

     total cpu time spent up to now is       72.7 secs

     total energy              =   -2039.79062840 Ry
     Harris-Foulkes estimate   =   -2039.79062847 Ry
     estimated scf accuracy    <       0.00000285 Ry

     iteration # 14     ecut=    30.00 Ry     beta= 0.50
     Davidson diagonalization with overlap
     ethr =  1.59E-09,  avg # of iterations =  2.0

     total cpu time spent up to now is       72.8 secs

     total energy              =   -2039.79062867 Ry
     Harris-Foulkes estimate   =   -2039.79062868 Ry
     estimated scf accuracy    <       0.00000040 Ry

     iteration # 15     ecut=    30.00 Ry     beta= 0.50
     Davidson diagonalization with overlap
     ethr =  2.23E-10,  avg # of iterations =  3.0

     total cpu time spent up to now is       73.0 secs

     End of self-consistent calculation

          k = 0.0000 0.0000 0.0000 (  4227 PWs)   bands (ev):

   -79.0267 -79.0212 -79.0204 -79.0188 -44.1590 -44.1315 -44.1210 -44.1200
   -43.9931 -43.9830 -43.9759 -43.9642 -43.6823 -43.6705 -43.6657 -43.6516
   -13.5193 -13.0984 -12.8730 -12.6528 -10.8637 -10.5487 -10.5409 -10.4627
   -10.4539 -10.4351 -10.4214 -10.3780 -10.3702 -10.3420 -10.1514  -9.9911
    -0.8505  -0.2336   0.1763   0.2104   0.7228   1.1842   1.4369   1.4600
     1.5771   1.7421   2.2288   2.4043   2.4687   2.6554   2.7305   2.8286
     3.3287   3.7903   3.8156   3.9546   3.9777   4.3093   4.4638   4.4973
     4.5048   4.6111   4.7017   5.0216   5.2341   5.3038   5.3663   5.4910
     5.5003   5.5725   6.0025   6.0190   6.2279   6.2985   6.3142   6.5140
     6.6894   6.7412   6.8581   6.9106   6.9456   6.9760   7.0876   7.6501
     8.0662   8.1078   8.1711   8.2974   8.5030   8.5696   8.6176   8.6495
     8.7414   8.7673   8.7713   8.9170  10.4952  10.5585  10.5595  11.1254
    11.3432  11.3700  11.7185  11.7269  13.9640  16.0712  16.1827  16.3374
    16.6570  16.6818  17.0085  17.0563

     the Fermi energy is     8.7708 ev

!    total energy              =   -2039.79062873 Ry
     Harris-Foulkes estimate   =   -2039.79062872 Ry
     estimated scf accuracy    <       0.00000005 Ry

     The total energy is the sum of the following terms:

     one-electron contribution =    -825.31942769 Ry
     hartree contribution      =     517.03067713 Ry
     xc contribution           =    -278.22993970 Ry
     ewald contribution        =    -996.63284899 Ry
     one-center paw contrib.   =    -456.63650183 Ry
     smearing contrib. (-TS)   =      -0.00258765 Ry

     convergence has been achieved in  15 iterations

     Forces acting on atoms (cartesian axes, Ry/au):

     atom    1 type  2   force =    -0.03435391    0.00000000    0.11521701
     atom    2 type  2   force =     0.03435391    0.00000000   -0.11521701
     atom    3 type  2   force =     0.03435391    0.00000000    0.11521701
     atom    4 type  2   force =    -0.03435391    0.00000000   -0.11521701
     atom    5 type  1   force =     0.00918973   -0.00000000   -0.00054893
     atom    6 type  1   force =    -0.00918973   -0.00000000    0.00054893
     atom    7 type  1   force =    -0.00918973    0.00000000   -0.00054893
     atom    8 type  1   force =     0.00918973    0.00000000    0.00054893
     atom    9 type  3   force =    -0.01568550   -0.01118069   -0.00109798
     atom   10 type  3   force =     0.01568550    0.01118069    0.00109798
     atom   11 type  3   force =     0.01568550    0.01118069   -0.00109798
     atom   12 type  3   force =    -0.01568550   -0.01118069    0.00109798
     atom   13 type  3   force =    -0.01568550    0.01118069    0.00109798
     atom   14 type  3   force =     0.01568550   -0.01118069   -0.00109798
     atom   15 type  3   force =     0.01568550   -0.01118069    0.00109798
     atom   16 type  3   force =    -0.01568550    0.01118069   -0.00109798
     atom   17 type  3   force =     0.00476408    0.00000000    0.01205405
     atom   18 type  3   force =    -0.00476408    0.00000000   -0.01205405
     atom   19 type  3   force =    -0.00476408    0.00000000    0.01205405
     atom   20 type  3   force =     0.00476408    0.00000000   -0.01205405
     atom   21 type  3   force =    -0.01353845    0.00000000    0.00638221
     atom   22 type  3   force =     0.01353845    0.00000000   -0.00638221
     atom   23 type  3   force =     0.01353845    0.00000000    0.00638221
     atom   24 type  3   force =    -0.01353845    0.00000000   -0.00638221

     Total force =     0.250411     Total SCF correction =     0.000161


     Computing stress (Cartesian axis) and pressure

          total   stress  (Ry/bohr**3)                   (kbar)     P= -382.59
  -0.00237606   0.00000000   0.00000000       -349.53      0.00      0.00
   0.00000000  -0.00257524   0.00000000          0.00   -378.83      0.00
   0.00000000   0.00000000  -0.00285109          0.00      0.00   -419.41


     Writing output data file VLAB.save/
 
     init_run     :      0.62s CPU      3.64s WALL (       2 calls)
     electrons    :     53.94s CPU     56.45s WALL (      25 calls)
     update_pot   :      2.94s CPU      3.01s WALL (      23 calls)
     forces       :      1.36s CPU      1.38s WALL (      25 calls)
     stress       :      2.86s CPU      2.86s WALL (      25 calls)

     Called by init_run:
     wfcinit      :      0.25s CPU      0.98s WALL (       2 calls)
     potinit      :      0.16s CPU      0.34s WALL (       2 calls)
     hinit0       :      0.18s CPU      1.88s WALL (       2 calls)

     Called by electrons:
     c_bands      :     26.87s CPU     28.59s WALL (     305 calls)
     sum_band     :      4.82s CPU      5.13s WALL (     305 calls)
     v_of_rho     :      0.57s CPU      0.60s WALL (     329 calls)
     newd         :      1.91s CPU      2.17s WALL (     329 calls)
     PAW_pot      :     22.56s CPU     23.18s WALL (     352 calls)
     mix_rho      :      0.23s CPU      0.24s WALL (     305 calls)

     Called by c_bands:
     init_us_2    :      0.14s CPU      0.14s WALL (     635 calls)
     cegterg      :     26.36s CPU     28.07s WALL (     305 calls)

     Called by sum_band:
     sum_band:bec :      0.06s CPU      0.06s WALL (     328 calls)
     addusdens    :      1.91s CPU      2.00s WALL (     305 calls)

     Called by *egterg:
     h_psi        :     10.09s CPU     10.85s WALL (    1074 calls)
     s_psi        :      0.55s CPU      0.57s WALL (    1074 calls)
     g_psi        :      0.02s CPU      0.02s WALL (     767 calls)
     cdiaghg      :     13.88s CPU     15.44s WALL (    1048 calls)

     Called by h_psi:
     h_psi:pot    :     10.05s CPU     10.81s WALL (    1074 calls)
     h_psi:calbec :      0.92s CPU      1.06s WALL (    1074 calls)
     vloc_psi     :      8.46s CPU      9.05s WALL (    1074 calls)
     add_vuspsi   :      0.67s CPU      0.70s WALL (    1074 calls)

     General routines
     calbec       :      1.48s CPU      1.66s WALL (    1527 calls)
     fft          :      0.62s CPU      1.81s WALL (    4268 calls)
     ffts         :      0.05s CPU      0.05s WALL (     305 calls)
     fftw         :      9.63s CPU     10.32s WALL (  191924 calls)
     davcio       :      0.00s CPU      0.00s WALL (      24 calls)
 
     Parallel routines
     fft_scatt_xy :      0.71s CPU      0.76s WALL (  196497 calls)
     fft_scatt_yz :      7.09s CPU      7.61s WALL (  196497 calls)
 
     PWSCF        :   1m 4.95s CPU   1m13.24s WALL

 
   This run was terminated on:   7:30:31  16Apr2020            

=------------------------------------------------------------------------------=
   JOB DONE.
=------------------------------------------------------------------------------=
