
     Program PWSCF v.6.4.1 starts on 16Apr2020 at  7:42:17 

     This program is part of the open-source Quantum ESPRESSO suite
     for quantum simulation of materials; please cite
         "P. Giannozzi et al., J. Phys.:Condens. Matter 21 395502 (2009);
         "P. Giannozzi et al., J. Phys.:Condens. Matter 29 465901 (2017);
          URL http://www.quantum-espresso.org", 
     in publications or presentations arising from this work. More details at
     http://www.quantum-espresso.org/quote

     Parallel version (MPI), running on    48 processors

     MPI processes distributed on     1 nodes
     R & G space division:  proc/nbgrp/npool/nimage =      48
     Waiting for input...
     Reading input from standard input

     Current dimensions of program PWSCF are:
     Max number of different atomic species (ntypx) = 10
     Max number of k-points (npk) =  40000
     Max angular momentum in pseudopotentials (lmaxx) =  3
               file Fe.pbe-spn-kjpaw_psl.0.2.1.UPF: wavefunction(s)  3D renormalized
               file O.pbe-n-kjpaw_psl.0.1.UPF: wavefunction(s)  2P renormalized

     Subspace diagonalization in iterative solution of the eigenvalue problem:
     one sub-group per band group will be used
     scalapack distributed-memory algorithm (size of sub-group:  4*  4 procs)

     Message from routine setup:
     DEPRECATED: symmetry with ibrav=0, use correct ibrav instead
 
     Parallelization info
     --------------------
     sticks:   dense  smooth     PW     G-vecs:    dense   smooth      PW
     Min          62      41     12                 1650      897     140
     Max          64      42     13                 1653      900     143
     Sum        3007    2011    587                79241    43131    6763
 


     bravais-lattice index     =            0
     lattice parameter (alat)  =      18.8524  a.u.
     unit-cell volume          =    1943.2939 (a.u.)^3
     number of atoms/cell      =           24
     number of atomic types    =            3
     number of electrons       =       180.00
     number of Kohn-Sham states=          108
     kinetic-energy cutoff     =      30.0000  Ry
     charge density cutoff     =     180.0000  Ry
     convergence threshold     =      1.0E-06
     mixing beta               =       0.5000
     number of iterations used =            8  plain     mixing
     Exchange-correlation      = SLA PW PBX PBC ( 1  4  3  4 0 0)
     nstep                     =          200


     celldm(1)=  18.852379  celldm(2)=   0.000000  celldm(3)=   0.000000
     celldm(4)=   0.000000  celldm(5)=   0.000000  celldm(6)=   0.000000

     crystal axes: (cart. coord. in units of alat)
               a(1) = (   1.000000   0.000000   0.000000 )  
               a(2) = (   0.000000   0.592130   0.000000 )  
               a(3) = (   0.000000   0.000000   0.489805 )  

     reciprocal axes: (cart. coord. in units 2 pi/alat)
               b(1) = (  1.000000  0.000000  0.000000 )  
               b(2) = (  0.000000  1.688818  0.000000 )  
               b(3) = (  0.000000  0.000000  2.041631 )  


     PseudoPot. # 1 for P  read from file:
     ./P.pbe-n-rrkjus_psl.1.0.0.UPF
     MD5 check sum: 8b930f418f0a4573dca56cd030ffe088
     Pseudo is Ultrasoft + core correction, Zval =  5.0
     Generated using "atomic" code by A. Dal Corso v.5.1
     Using radial grid of 1147 points,  6 beta functions with: 
                l(1) =   0
                l(2) =   0
                l(3) =   1
                l(4) =   1
                l(5) =   2
                l(6) =   2
     Q(r) pseudized with 0 coefficients 


     PseudoPot. # 2 for Fe read from file:
     ./Fe.pbe-spn-kjpaw_psl.0.2.1.UPF
     MD5 check sum: e86618425769142926afa95317d90200
     Pseudo is Projector augmented-wave + core cor, Zval = 16.0
     Generated using "atomic" code by A. Dal Corso v.5.0.99 svn rev. 10869
     Shape of augmentation charge: PSQ
     Using radial grid of 1191 points,  6 beta functions with: 
                l(1) =   0
                l(2) =   0
                l(3) =   1
                l(4) =   1
                l(5) =   2
                l(6) =   2
     Q(r) pseudized with 0 coefficients 


     PseudoPot. # 3 for O  read from file:
     ./O.pbe-n-kjpaw_psl.0.1.UPF
     MD5 check sum: 0234752ac141de4415c5fc33072bef88
     Pseudo is Projector augmented-wave + core cor, Zval =  6.0
     Generated using "atomic" code by A. Dal Corso v.5.0.99 svn rev. 10869
     Shape of augmentation charge: BESSEL
     Using radial grid of 1095 points,  4 beta functions with: 
                l(1) =   0
                l(2) =   0
                l(3) =   1
                l(4) =   1
     Q(r) pseudized with 0 coefficients 


     atomic species   valence    mass     pseudopotential
        P              5.00    30.97376     P ( 1.00)
        Fe            16.00    55.84500     Fe( 1.00)
        O              6.00    15.99940     O ( 1.00)

      8 Sym. Ops., with inversion, found ( 6 have fractional translation)


                                    s                        frac. trans.

      isym =  1     identity                                     

 cryst.   s( 1) = (     1          0          0      )
                  (     0          1          0      )
                  (     0          0          1      )

 cart.    s( 1) = (  1.0000000  0.0000000  0.0000000 )
                  (  0.0000000  1.0000000  0.0000000 )
                  (  0.0000000  0.0000000  1.0000000 )


      isym =  2     180 deg rotation - cart. axis [0,0,1]        

 cryst.   s( 2) = (    -1          0          0      )    f =(  0.5000000 )
                  (     0         -1          0      )       (  0.0000000 )
                  (     0          0          1      )       ( -0.5000000 )

 cart.    s( 2) = ( -1.0000000  0.0000000  0.0000000 )    f =(  0.5000000 )
                  (  0.0000000 -1.0000000  0.0000000 )       (  0.0000000 )
                  (  0.0000000  0.0000000  1.0000000 )       ( -0.2449023 )


      isym =  3     180 deg rotation - cart. axis [0,1,0]        

 cryst.   s( 3) = (    -1          0          0      )    f =(  0.0000000 )
                  (     0          1          0      )       ( -0.5000000 )
                  (     0          0         -1      )       (  0.0000000 )

 cart.    s( 3) = ( -1.0000000  0.0000000  0.0000000 )    f =(  0.0000000 )
                  (  0.0000000  1.0000000  0.0000000 )       ( -0.2960651 )
                  (  0.0000000  0.0000000 -1.0000000 )       (  0.0000000 )


      isym =  4     180 deg rotation - cart. axis [1,0,0]        

 cryst.   s( 4) = (     1          0          0      )    f =( -0.5000000 )
                  (     0         -1          0      )       ( -0.5000000 )
                  (     0          0         -1      )       (  0.5000000 )

 cart.    s( 4) = (  1.0000000  0.0000000  0.0000000 )    f =( -0.5000000 )
                  (  0.0000000 -1.0000000  0.0000000 )       ( -0.2960651 )
                  (  0.0000000  0.0000000 -1.0000000 )       (  0.2449023 )


      isym =  5     inversion                                    

 cryst.   s( 5) = (    -1          0          0      )
                  (     0         -1          0      )
                  (     0          0         -1      )

 cart.    s( 5) = ( -1.0000000  0.0000000  0.0000000 )
                  (  0.0000000 -1.0000000  0.0000000 )
                  (  0.0000000  0.0000000 -1.0000000 )


      isym =  6     inv. 180 deg rotation - cart. axis [0,0,1]   

 cryst.   s( 6) = (     1          0          0      )    f =( -0.5000000 )
                  (     0          1          0      )       (  0.0000000 )
                  (     0          0         -1      )       (  0.5000000 )

 cart.    s( 6) = (  1.0000000  0.0000000  0.0000000 )    f =( -0.5000000 )
                  (  0.0000000  1.0000000  0.0000000 )       (  0.0000000 )
                  (  0.0000000  0.0000000 -1.0000000 )       (  0.2449023 )


      isym =  7     inv. 180 deg rotation - cart. axis [0,1,0]   

 cryst.   s( 7) = (     1          0          0      )    f =(  0.0000000 )
                  (     0         -1          0      )       ( -0.5000000 )
                  (     0          0          1      )       (  0.0000000 )

 cart.    s( 7) = (  1.0000000  0.0000000  0.0000000 )    f =(  0.0000000 )
                  (  0.0000000 -1.0000000  0.0000000 )       ( -0.2960651 )
                  (  0.0000000  0.0000000  1.0000000 )       (  0.0000000 )


      isym =  8     inv. 180 deg rotation - cart. axis [1,0,0]   

 cryst.   s( 8) = (    -1          0          0      )    f =(  0.5000000 )
                  (     0          1          0      )       ( -0.5000000 )
                  (     0          0          1      )       ( -0.5000000 )

 cart.    s( 8) = ( -1.0000000  0.0000000  0.0000000 )    f =(  0.5000000 )
                  (  0.0000000  1.0000000  0.0000000 )       ( -0.2960651 )
                  (  0.0000000  0.0000000  1.0000000 )       ( -0.2449023 )


   Cartesian axes

     site n.     atom                  positions (alat units)
         1           Fe  tau(   1) = (   0.2249200   0.4440976   0.2236364  )
         2           Fe  tau(   2) = (   0.7750800   0.1480325   0.2661681  )
         3           Fe  tau(   3) = (   0.2750800   0.1480325   0.4685387  )
         4           Fe  tau(   4) = (   0.7249200   0.4440976   0.0212658  )
         5           P   tau(   5) = (   0.0963420   0.1480325   0.1988048  )
         6           P   tau(   6) = (   0.9036580   0.4440976   0.2909997  )
         7           P   tau(   7) = (   0.4036580   0.4440976   0.4437071  )
         8           P   tau(   8) = (   0.5963420   0.1480325   0.0460975  )
         9           O   tau(   9) = (   0.1692870   0.0277656   0.1260634  )
        10           O   tau(  10) = (   0.8307130   0.5643646   0.3637411  )
        11           O   tau(  11) = (   0.3307130   0.5643646   0.3709657  )
        12           O   tau(  12) = (   0.6692870   0.0277656   0.1188388  )
        13           O   tau(  13) = (   0.6692870   0.2682995   0.1188388  )
        14           O   tau(  14) = (   0.3307130   0.3238307   0.3709657  )
        15           O   tau(  15) = (   0.8307130   0.3238307   0.3637411  )
        16           O   tau(  16) = (   0.1692870   0.2682995   0.1260634  )
        17           O   tau(  17) = (   0.0542900   0.4440976   0.3183053  )
        18           O   tau(  18) = (   0.9457100   0.1480325   0.1714992  )
        19           O   tau(  19) = (   0.4457100   0.1480325   0.0734031  )
        20           O   tau(  20) = (   0.5542900   0.4440976   0.4164014  )
        21           O   tau(  21) = (   0.1228920   0.1480325   0.3494158  )
        22           O   tau(  22) = (   0.8771080   0.4440976   0.1403888  )
        23           O   tau(  23) = (   0.3771080   0.4440976   0.1045135  )
        24           O   tau(  24) = (   0.6228920   0.1480325   0.3852910  )

   Crystallographic axes

     site n.     atom                  positions (cryst. coord.)
         1           Fe  tau(   1) = (  0.2249200  0.7500000  0.4565830  )
         2           Fe  tau(   2) = (  0.7750800  0.2500000  0.5434170  )
         3           Fe  tau(   3) = (  0.2750800  0.2500000  0.9565830  )
         4           Fe  tau(   4) = (  0.7249200  0.7500000  0.0434170  )
         5           P   tau(   5) = (  0.0963420  0.2500000  0.4058860  )
         6           P   tau(   6) = (  0.9036580  0.7500000  0.5941140  )
         7           P   tau(   7) = (  0.4036580  0.7500000  0.9058860  )
         8           P   tau(   8) = (  0.5963420  0.2500000  0.0941140  )
         9           O   tau(   9) = (  0.1692870  0.0468910  0.2573750  )
        10           O   tau(  10) = (  0.8307130  0.9531090  0.7426250  )
        11           O   tau(  11) = (  0.3307130  0.9531090  0.7573750  )
        12           O   tau(  12) = (  0.6692870  0.0468910  0.2426250  )
        13           O   tau(  13) = (  0.6692870  0.4531090  0.2426250  )
        14           O   tau(  14) = (  0.3307130  0.5468910  0.7573750  )
        15           O   tau(  15) = (  0.8307130  0.5468910  0.7426250  )
        16           O   tau(  16) = (  0.1692870  0.4531090  0.2573750  )
        17           O   tau(  17) = (  0.0542900  0.7500000  0.6498620  )
        18           O   tau(  18) = (  0.9457100  0.2500000  0.3501380  )
        19           O   tau(  19) = (  0.4457100  0.2500000  0.1498620  )
        20           O   tau(  20) = (  0.5542900  0.7500000  0.8501380  )
        21           O   tau(  21) = (  0.1228920  0.2500000  0.7133780  )
        22           O   tau(  22) = (  0.8771080  0.7500000  0.2866220  )
        23           O   tau(  23) = (  0.3771080  0.7500000  0.2133780  )
        24           O   tau(  24) = (  0.6228920  0.2500000  0.7866220  )

     number of k points=    24  gaussian smearing, width (Ry)=  0.0020
                       cart. coord. in units 2pi/alat
        k(    1) = (   0.0000000   0.0000000   0.0000000), wk =   0.0222222
        k(    2) = (   0.0000000   0.0000000   0.3402718), wk =   0.0444444
        k(    3) = (   0.0000000   0.0000000   0.6805436), wk =   0.0444444
        k(    4) = (   0.0000000   0.0000000  -1.0208154), wk =   0.0222222
        k(    5) = (   0.0000000   0.3377636   0.0000000), wk =   0.0444444
        k(    6) = (   0.0000000   0.3377636   0.3402718), wk =   0.0888889
        k(    7) = (   0.0000000   0.3377636   0.6805436), wk =   0.0888889
        k(    8) = (   0.0000000   0.3377636  -1.0208154), wk =   0.0444444
        k(    9) = (   0.0000000   0.6755271   0.0000000), wk =   0.0444444
        k(   10) = (   0.0000000   0.6755271   0.3402718), wk =   0.0888889
        k(   11) = (   0.0000000   0.6755271   0.6805436), wk =   0.0888889
        k(   12) = (   0.0000000   0.6755271  -1.0208154), wk =   0.0444444
        k(   13) = (   0.3333333   0.0000000   0.0000000), wk =   0.0444444
        k(   14) = (   0.3333333   0.0000000   0.3402718), wk =   0.0888889
        k(   15) = (   0.3333333   0.0000000   0.6805436), wk =   0.0888889
        k(   16) = (   0.3333333   0.0000000  -1.0208154), wk =   0.0444444
        k(   17) = (   0.3333333   0.3377636   0.0000000), wk =   0.0888889
        k(   18) = (   0.3333333   0.3377636   0.3402718), wk =   0.1777778
        k(   19) = (   0.3333333   0.3377636   0.6805436), wk =   0.1777778
        k(   20) = (   0.3333333   0.3377636  -1.0208154), wk =   0.0888889
        k(   21) = (   0.3333333   0.6755271   0.0000000), wk =   0.0888889
        k(   22) = (   0.3333333   0.6755271   0.3402718), wk =   0.1777778
        k(   23) = (   0.3333333   0.6755271   0.6805436), wk =   0.1777778
        k(   24) = (   0.3333333   0.6755271  -1.0208154), wk =   0.0888889

                       cryst. coord.
        k(    1) = (   0.0000000   0.0000000   0.0000000), wk =   0.0222222
        k(    2) = (   0.0000000   0.0000000   0.1666667), wk =   0.0444444
        k(    3) = (   0.0000000   0.0000000   0.3333333), wk =   0.0444444
        k(    4) = (   0.0000000   0.0000000  -0.5000000), wk =   0.0222222
        k(    5) = (   0.0000000   0.2000000   0.0000000), wk =   0.0444444
        k(    6) = (   0.0000000   0.2000000   0.1666667), wk =   0.0888889
        k(    7) = (   0.0000000   0.2000000   0.3333333), wk =   0.0888889
        k(    8) = (   0.0000000   0.2000000  -0.5000000), wk =   0.0444444
        k(    9) = (   0.0000000   0.4000000   0.0000000), wk =   0.0444444
        k(   10) = (   0.0000000   0.4000000   0.1666667), wk =   0.0888889
        k(   11) = (   0.0000000   0.4000000   0.3333333), wk =   0.0888889
        k(   12) = (   0.0000000   0.4000000  -0.5000000), wk =   0.0444444
        k(   13) = (   0.3333333   0.0000000   0.0000000), wk =   0.0444444
        k(   14) = (   0.3333333   0.0000000   0.1666667), wk =   0.0888889
        k(   15) = (   0.3333333   0.0000000   0.3333333), wk =   0.0888889
        k(   16) = (   0.3333333   0.0000000  -0.5000000), wk =   0.0444444
        k(   17) = (   0.3333333   0.2000000   0.0000000), wk =   0.0888889
        k(   18) = (   0.3333333   0.2000000   0.1666667), wk =   0.1777778
        k(   19) = (   0.3333333   0.2000000   0.3333333), wk =   0.1777778
        k(   20) = (   0.3333333   0.2000000  -0.5000000), wk =   0.0888889
        k(   21) = (   0.3333333   0.4000000   0.0000000), wk =   0.0888889
        k(   22) = (   0.3333333   0.4000000   0.1666667), wk =   0.1777778
        k(   23) = (   0.3333333   0.4000000   0.3333333), wk =   0.1777778
        k(   24) = (   0.3333333   0.4000000  -0.5000000), wk =   0.0888889

     Dense  grid:    79241 G-vectors     FFT dimensions: (  90,  48,  40)

     Smooth grid:    43131 G-vectors     FFT dimensions: (  72,  40,  36)

     Dynamical RAM for                 wfc:       0.18 MB

     Dynamical RAM for     wfc (w. buffer):       4.61 MB

     Dynamical RAM for           str. fact:       0.08 MB

     Dynamical RAM for           local pot:       0.00 MB

     Dynamical RAM for          nlocal pot:       0.46 MB

     Dynamical RAM for                qrad:      19.37 MB

     Dynamical RAM for          rho,v,vnew:       0.17 MB

     Dynamical RAM for               rhoin:       0.06 MB

     Dynamical RAM for            rho*nmix:       0.40 MB

     Dynamical RAM for           G-vectors:       0.10 MB

     Dynamical RAM for          h,s,v(r/c):       0.53 MB

     Dynamical RAM for          <psi|beta>:       0.45 MB

     Dynamical RAM for                 psi:       0.74 MB

     Dynamical RAM for                hpsi:       0.74 MB

     Dynamical RAM for                spsi:       0.74 MB

     Dynamical RAM for      wfcinit/wfcrot:       0.64 MB

     Dynamical RAM for           addusdens:       5.09 MB

     Dynamical RAM for          addusforce:       6.56 MB

     Dynamical RAM for         addusstress:       5.06 MB

     Estimated static dynamical RAM per process >      25.53 MB

     Estimated max dynamical RAM per process >      32.08 MB

     Estimated total dynamical RAM >       1.50 GB

     Check: negative core charge=   -0.000679

     Initial potential from superposition of free atoms

     starting charge  179.99758, renormalised to  180.00000
     Starting wfcs are random
     Checking if some PAW data can be deallocated... 
       PAW data deallocated on   40 nodes for type:  2
       PAW data deallocated on   16 nodes for type:  3

     total cpu time spent up to now is        6.5 secs

     Self-consistent Calculation

     iteration #  1     ecut=    30.00 Ry     beta= 0.50
     Davidson diagonalization with overlap
     ethr =  1.00E-02,  avg # of iterations =  8.0

     total cpu time spent up to now is       15.7 secs

     total energy              =   -2036.13861687 Ry
     Harris-Foulkes estimate   =   -2039.71137854 Ry
     estimated scf accuracy    <       6.09440210 Ry

     iteration #  2     ecut=    30.00 Ry     beta= 0.50
     Davidson diagonalization with overlap
     ethr =  3.39E-03,  avg # of iterations =  2.0

     total cpu time spent up to now is       18.1 secs

     total energy              =   -2032.52525360 Ry
     Harris-Foulkes estimate   =   -2043.69669880 Ry
     estimated scf accuracy    <      55.75555781 Ry

     iteration #  3     ecut=    30.00 Ry     beta= 0.50
     Davidson diagonalization with overlap
     ethr =  3.39E-03,  avg # of iterations =  2.0

     total cpu time spent up to now is       20.3 secs

     total energy              =   -2038.55046099 Ry
     Harris-Foulkes estimate   =   -2038.86776414 Ry
     estimated scf accuracy    <       2.11265782 Ry

     iteration #  4     ecut=    30.00 Ry     beta= 0.50
     Davidson diagonalization with overlap
     ethr =  1.17E-03,  avg # of iterations =  1.0

     negative rho (up, down):  1.614E-04 0.000E+00

     total cpu time spent up to now is       21.9 secs

     total energy              =   -2038.53249970 Ry
     Harris-Foulkes estimate   =   -2038.65923077 Ry
     estimated scf accuracy    <       0.61735957 Ry

     iteration #  5     ecut=    30.00 Ry     beta= 0.50
     Davidson diagonalization with overlap
     ethr =  3.43E-04,  avg # of iterations =  2.0

     negative rho (up, down):  4.693E-04 0.000E+00

     total cpu time spent up to now is       23.9 secs

     total energy              =   -2038.59023101 Ry
     Harris-Foulkes estimate   =   -2038.59812422 Ry
     estimated scf accuracy    <       0.04605464 Ry

     iteration #  6     ecut=    30.00 Ry     beta= 0.50
     Davidson diagonalization with overlap
     ethr =  2.56E-05,  avg # of iterations =  5.7

     negative rho (up, down):  7.088E-04 0.000E+00

     total cpu time spent up to now is       27.3 secs

     total energy              =   -2038.59344495 Ry
     Harris-Foulkes estimate   =   -2038.59653889 Ry
     estimated scf accuracy    <       0.01196421 Ry

     iteration #  7     ecut=    30.00 Ry     beta= 0.50
     Davidson diagonalization with overlap
     ethr =  6.65E-06,  avg # of iterations =  4.2

     negative rho (up, down):  8.372E-04 0.000E+00

     total cpu time spent up to now is       30.3 secs

     total energy              =   -2038.59649744 Ry
     Harris-Foulkes estimate   =   -2038.59646807 Ry
     estimated scf accuracy    <       0.00508785 Ry

     iteration #  8     ecut=    30.00 Ry     beta= 0.50
     Davidson diagonalization with overlap
     ethr =  2.83E-06,  avg # of iterations =  1.4

     negative rho (up, down):  9.133E-04 0.000E+00

     total cpu time spent up to now is       32.1 secs

     total energy              =   -2038.59694610 Ry
     Harris-Foulkes estimate   =   -2038.59691248 Ry
     estimated scf accuracy    <       0.00052043 Ry

     iteration #  9     ecut=    30.00 Ry     beta= 0.50
     Davidson diagonalization with overlap
     ethr =  2.89E-07,  avg # of iterations =  2.2

     negative rho (up, down):  9.640E-04 0.000E+00

     total cpu time spent up to now is       34.6 secs

     total energy              =   -2038.59711943 Ry
     Harris-Foulkes estimate   =   -2038.59713735 Ry
     estimated scf accuracy    <       0.00038229 Ry

     iteration # 10     ecut=    30.00 Ry     beta= 0.50
     Davidson diagonalization with overlap
     ethr =  2.12E-07,  avg # of iterations =  1.1

     negative rho (up, down):  9.910E-04 0.000E+00

     total cpu time spent up to now is       36.3 secs

     total energy              =   -2038.59717908 Ry
     Harris-Foulkes estimate   =   -2038.59716214 Ry
     estimated scf accuracy    <       0.00002476 Ry

     iteration # 11     ecut=    30.00 Ry     beta= 0.50
     Davidson diagonalization with overlap
     ethr =  1.38E-08,  avg # of iterations =  2.0

     negative rho (up, down):  1.005E-03 0.000E+00

     total cpu time spent up to now is       38.7 secs

     total energy              =   -2038.59718914 Ry
     Harris-Foulkes estimate   =   -2038.59718394 Ry
     estimated scf accuracy    <       0.00000793 Ry

     iteration # 12     ecut=    30.00 Ry     beta= 0.50
     Davidson diagonalization with overlap
     ethr =  4.41E-09,  avg # of iterations =  2.0

     negative rho (up, down):  1.015E-03 0.000E+00

     total cpu time spent up to now is       40.7 secs

     total energy              =   -2038.59719643 Ry
     Harris-Foulkes estimate   =   -2038.59719040 Ry
     estimated scf accuracy    <       0.00000111 Ry

     iteration # 13     ecut=    30.00 Ry     beta= 0.50
     Davidson diagonalization with overlap
     ethr =  6.19E-10,  avg # of iterations =  2.0

     negative rho (up, down):  1.028E-03 0.000E+00

     total cpu time spent up to now is       43.0 secs

     End of self-consistent calculation

          k = 0.0000 0.0000 0.0000 (  5359 PWs)   bands (ev):

   -82.3354 -82.3350 -82.3333 -82.3330 -47.6364 -47.6274 -47.6270 -47.6225
   -47.5897 -47.5869 -47.5835 -47.5826 -47.5164 -47.5017 -47.4997 -47.4905
   -16.2504 -15.9768 -15.9616 -15.7944 -13.7500 -13.6898 -13.6386 -13.6041
   -13.5037 -13.4748 -13.3745 -13.3625 -13.3498 -13.3455 -13.3223 -13.1927
    -3.7958  -3.1455  -3.1395  -2.8357  -1.8338  -1.5543  -1.2939  -1.2005
    -1.1817  -0.8069  -0.7008  -0.6926  -0.6628  -0.5484  -0.4954  -0.0927
     0.3143   0.5658   1.0453   1.1083   1.2632   1.2849   1.3649   1.4069
     1.6050   1.6253   1.8634   2.1762   2.2195   2.2687   2.2979   2.4653
     2.4875   2.5828   2.6545   2.6849   2.6877   2.6927   3.1431   3.3617
     3.4101   3.4562   3.5115   3.5539   3.5599   3.5775   3.9767   4.1110
     4.6983   4.7413   4.7556   4.7639   4.9115   4.9308   4.9851   5.0083
     5.0728   5.0777   5.1573   5.2282   6.1299   6.1323   6.6780   7.1344
     7.1365   7.1617   7.1862   7.4229  10.0903  12.3077  12.4282  13.4030
    13.6664  13.6866  13.8274  13.9989

     occupation numbers 
     1.0000   1.0000   1.0000   1.0000   1.0000   1.0000   1.0000   1.0000
     1.0000   1.0000   1.0000   1.0000   1.0000   1.0000   1.0000   1.0000
     1.0000   1.0000   1.0000   1.0000   1.0000   1.0000   1.0000   1.0000
     1.0000   1.0000   1.0000   1.0000   1.0000   1.0000   1.0000   1.0000
     1.0000   1.0000   1.0000   1.0000   1.0000   1.0000   1.0000   1.0000
     1.0000   1.0000   1.0000   1.0000   1.0000   1.0000   1.0000   1.0000
     1.0000   1.0000   1.0000   1.0000   1.0000   1.0000   1.0000   1.0000
     1.0000   1.0000   1.0000   1.0000   1.0000   1.0000   1.0000   1.0000
     1.0000   1.0000   1.0000   1.0000   1.0000   1.0000   1.0000   1.0000
     1.0000   1.0000   1.0000   1.0000   1.0000   1.0000   1.0000   1.0000
     1.0000   1.0000   1.0000   1.0000   1.0000   1.0000   1.0000   1.0000
     1.0000   1.0000   0.9678   0.0330   0.0000   0.0000   0.0000   0.0000
     0.0000   0.0000   0.0000   0.0000   0.0000   0.0000   0.0000   0.0000
     0.0000   0.0000   0.0000   0.0000

          k = 0.0000 0.0000 0.3403 (  5424 PWs)   bands (ev):

   -82.3411 -82.3393 -82.3366 -82.3359 -47.6510 -47.6485 -47.6387 -47.6383
   -47.5999 -47.5945 -47.5864 -47.5847 -47.5328 -47.5311 -47.5161 -47.5160
   -16.2186 -15.9777 -15.9364 -15.7906 -13.7671 -13.7227 -13.6498 -13.6134
   -13.4948 -13.4669 -13.3843 -13.3818 -13.3740 -13.3589 -13.3069 -13.2078
    -3.7314  -3.1563  -3.1442  -2.8588  -1.7216  -1.5167  -1.2906  -1.1818
    -1.1405  -0.8981  -0.6864  -0.6835  -0.6222  -0.5335  -0.4735  -0.1398
     0.3378   0.5409   0.9775   1.0995   1.1832   1.2982   1.3386   1.3551
     1.5927   1.6416   1.7285   2.1000   2.2246   2.2743   2.4236   2.4264
     2.4361   2.5585   2.5890   2.6047   2.6135   2.8913   3.0598   3.2096
     3.3318   3.3690   3.5144   3.5230   3.6559   3.6883   3.9773   4.1085
     4.5932   4.7120   4.7133   4.7228   4.8706   4.8870   4.9237   5.0314
     5.1562   5.1660   5.1803   5.2818   6.1857   6.2236   6.7021   7.0782
     7.0784   7.1005   7.1636   7.3761  10.4406  12.4797  12.5530  13.3008
    13.5493  13.6491  13.7694  13.9090

     occupation numbers 
     1.0000   1.0000   1.0000   1.0000   1.0000   1.0000   1.0000   1.0000
     1.0000   1.0000   1.0000   1.0000   1.0000   1.0000   1.0000   1.0000
     1.0000   1.0000   1.0000   1.0000   1.0000   1.0000   1.0000   1.0000
     1.0000   1.0000   1.0000   1.0000   1.0000   1.0000   1.0000   1.0000
     1.0000   1.0000   1.0000   1.0000   1.0000   1.0000   1.0000   1.0000
     1.0000   1.0000   1.0000   1.0000   1.0000   1.0000   1.0000   1.0000
     1.0000   1.0000   1.0000   1.0000   1.0000   1.0000   1.0000   1.0000
     1.0000   1.0000   1.0000   1.0000   1.0000   1.0000   1.0000   1.0000
     1.0000   1.0000   1.0000   1.0000   1.0000   1.0000   1.0000   1.0000
     1.0000   1.0000   1.0000   1.0000   1.0000   1.0000   1.0000   1.0000
     1.0000   1.0000   1.0000   1.0000   1.0000   1.0000   1.0000   1.0000
     0.9717   0.9186   0.7430   0.0000   0.0000   0.0000   0.0000   0.0000
     0.0000   0.0000   0.0000   0.0000   0.0000   0.0000   0.0000   0.0000
     0.0000   0.0000   0.0000   0.0000

          k = 0.0000 0.0000 0.6805 (  5400 PWs)   bands (ev):

   -82.3391 -82.3379 -82.3356 -82.3338 -47.6514 -47.6383 -47.6378 -47.6268
   -47.5960 -47.5937 -47.5838 -47.5778 -47.5248 -47.5194 -47.5190 -47.4995
   -16.1369 -15.9926 -15.8763 -15.7903 -13.8004 -13.7813 -13.6772 -13.6460
   -13.4679 -13.4444 -13.4161 -13.4070 -13.4024 -13.3824 -13.2894 -13.2383
    -3.5484  -3.1764  -3.1471  -2.9581  -1.4619  -1.2900  -1.2360  -1.2028
    -1.0115  -0.9479  -0.8685  -0.7358  -0.6228  -0.2914  -0.2136  -0.2102
     0.4184   0.5703   0.8551   1.0126   1.1216   1.2116   1.3565   1.4277
     1.4567   1.5814   1.6612   2.0660   2.0685   2.2490   2.2773   2.3413
     2.4124   2.4204   2.5943   2.7092   2.7679   2.9095   2.9906   3.1255
     3.1587   3.4525   3.4782   3.5249   3.7064   3.8912   3.9941   4.2001
     4.5576   4.6072   4.6574   4.6853   4.7282   4.9223   4.9963   5.0490
     5.0835   5.1319   5.3595   5.4302   6.3859   6.4323   6.7715   6.9142
     6.9384   6.9673   7.1413   7.2712  11.2974  12.8422  12.8846  13.2748
    13.4770  13.4959  13.5463  13.5490

     occupation numbers 
     1.0000   1.0000   1.0000   1.0000   1.0000   1.0000   1.0000   1.0000
     1.0000   1.0000   1.0000   1.0000   1.0000   1.0000   1.0000   1.0000
     1.0000   1.0000   1.0000   1.0000   1.0000   1.0000   1.0000   1.0000
     1.0000   1.0000   1.0000   1.0000   1.0000   1.0000   1.0000   1.0000
     1.0000   1.0000   1.0000   1.0000   1.0000   1.0000   1.0000   1.0000
     1.0000   1.0000   1.0000   1.0000   1.0000   1.0000   1.0000   1.0000
     1.0000   1.0000   1.0000   1.0000   1.0000   1.0000   1.0000   1.0000
     1.0000   1.0000   1.0000   1.0000   1.0000   1.0000   1.0000   1.0000
     1.0000   1.0000   1.0000   1.0000   1.0000   1.0000   1.0000   1.0000
     1.0000   1.0000   1.0000   1.0000   1.0000   1.0000   1.0000   1.0000
     1.0000   1.0000   1.0000   1.0000   1.0000   1.0000   1.0000   1.0000
     1.0000   0.9992   0.0000   0.0000   0.0000   0.0000   0.0000   0.0000
     0.0000   0.0000   0.0000   0.0000   0.0000   0.0000   0.0000   0.0000
     0.0000   0.0000   0.0000   0.0000

          k = 0.0000 0.0000-1.0208 (  5388 PWs)   bands (ev):

   -82.3387 -82.3387 -82.3328 -82.3328 -47.6471 -47.6471 -47.6261 -47.6261
   -47.5937 -47.5937 -47.5707 -47.5707 -47.5228 -47.5228 -47.5085 -47.5085
   -16.0482 -16.0482 -15.8178 -15.8178 -13.8138 -13.8138 -13.6820 -13.6820
   -13.4334 -13.4334 -13.4232 -13.4232 -13.4133 -13.4133 -13.2677 -13.2677
    -3.3126  -3.3126  -3.0888  -3.0888  -1.3116  -1.3116  -1.0947  -1.0947
    -0.9712  -0.9712  -0.8911  -0.8911  -0.4831  -0.4831  -0.0181  -0.0181
     0.6490   0.6490   0.7000   0.7000   1.2417   1.2417   1.2737   1.2737
     1.4465   1.4465   1.7387   1.7387   2.2564   2.2564   2.3519   2.3519
     2.3575   2.3575   2.5260   2.5260   2.8361   2.8361   3.0189   3.0189
     3.4319   3.4319   3.4553   3.4553   3.8083   3.8083   4.1670   4.1670
     4.6091   4.6091   4.6188   4.6188   4.7949   4.7949   5.0616   5.0616
     5.0691   5.0691   5.4611   5.4611   6.6573   6.6573   6.7000   6.7000
     6.8615   6.8615   7.1701   7.1701  12.3047  12.3047  13.2283  13.2283
    13.4452  13.4452  13.5275  13.5275

     occupation numbers 
     1.0000   1.0000   1.0000   1.0000   1.0000   1.0000   1.0000   1.0000
     1.0000   1.0000   1.0000   1.0000   1.0000   1.0000   1.0000   1.0000
     1.0000   1.0000   1.0000   1.0000   1.0000   1.0000   1.0000   1.0000
     1.0000   1.0000   1.0000   1.0000   1.0000   1.0000   1.0000   1.0000
     1.0000   1.0000   1.0000   1.0000   1.0000   1.0000   1.0000   1.0000
     1.0000   1.0000   1.0000   1.0000   1.0000   1.0000   1.0000   1.0000
     1.0000   1.0000   1.0000   1.0000   1.0000   1.0000   1.0000   1.0000
     1.0000   1.0000   1.0000   1.0000   1.0000   1.0000   1.0000   1.0000
     1.0000   1.0000   1.0000   1.0000   1.0000   1.0000   1.0000   1.0000
     1.0000   1.0000   1.0000   1.0000   1.0000   1.0000   1.0000   1.0000
     1.0000   1.0000   1.0000   1.0000   1.0000   1.0000   1.0000   1.0000
     1.0000   1.0000   0.0000   0.0000   0.0000   0.0000   0.0000   0.0000
     0.0000   0.0000   0.0000   0.0000   0.0000   0.0000   0.0000   0.0000
     0.0000   0.0000   0.0000   0.0000

          k = 0.0000 0.3378 0.0000 (  5369 PWs)   bands (ev):

   -82.3361 -82.3356 -82.3354 -82.3317 -47.6377 -47.6377 -47.6358 -47.6234
   -47.5924 -47.5858 -47.5813 -47.5689 -47.5113 -47.5110 -47.5014 -47.4999
   -16.2086 -15.9681 -15.9547 -15.8385 -13.7664 -13.6930 -13.6613 -13.6108
   -13.5122 -13.4800 -13.4211 -13.3696 -13.3320 -13.3080 -13.2806 -13.2067
    -3.7282  -3.1981  -3.0901  -2.8309  -1.7626  -1.5216  -1.2415  -1.2152
    -1.1768  -0.7861  -0.7259  -0.6939  -0.6451  -0.5053  -0.4375  -0.1749
     0.3919   0.5893   0.9093   1.1330   1.1721   1.1982   1.2031   1.4704
     1.5266   1.8662   1.9653   2.0729   2.1188   2.2023   2.2614   2.4477
     2.5254   2.5914   2.6539   2.6842   2.7534   2.8347   2.9797   3.3400
     3.3419   3.3717   3.4114   3.6053   3.6083   3.6115   3.9630   4.0257
     4.6373   4.7124   4.7433   4.8189   4.8759   4.8759   4.9280   5.0284
     5.0507   5.0903   5.2453   5.2997   6.1053   6.1189   6.8484   6.8515
     6.9042   7.2662   7.3259   7.4640  10.4203  12.4916  12.6024  13.3086
    13.6546  13.6862  13.8069  14.1128

     occupation numbers 
     1.0000   1.0000   1.0000   1.0000   1.0000   1.0000   1.0000   1.0000
     1.0000   1.0000   1.0000   1.0000   1.0000   1.0000   1.0000   1.0000
     1.0000   1.0000   1.0000   1.0000   1.0000   1.0000   1.0000   1.0000
     1.0000   1.0000   1.0000   1.0000   1.0000   1.0000   1.0000   1.0000
     1.0000   1.0000   1.0000   1.0000   1.0000   1.0000   1.0000   1.0000
     1.0000   1.0000   1.0000   1.0000   1.0000   1.0000   1.0000   1.0000
     1.0000   1.0000   1.0000   1.0000   1.0000   1.0000   1.0000   1.0000
     1.0000   1.0000   1.0000   1.0000   1.0000   1.0000   1.0000   1.0000
     1.0000   1.0000   1.0000   1.0000   1.0000   1.0000   1.0000   1.0000
     1.0000   1.0000   1.0000   1.0000   1.0000   1.0000   1.0000   1.0000
     1.0000   1.0000   1.0000   1.0000   1.0000   1.0000   1.0000   1.0000
     1.0000   1.0000   0.0032   0.0000   0.0000   0.0000   0.0000   0.0000
     0.0000   0.0000   0.0000   0.0000   0.0000   0.0000   0.0000   0.0000
     0.0000   0.0000   0.0000   0.0000

          k = 0.0000 0.3378 0.3403 (  5381 PWs)   bands (ev):

   -82.3361 -82.3361 -82.3355 -82.3338 -47.6404 -47.6384 -47.6350 -47.6312
   -47.5882 -47.5803 -47.5780 -47.5715 -47.5177 -47.5161 -47.5095 -47.5088
   -16.1776 -15.9663 -15.9322 -15.8306 -13.7841 -13.7397 -13.6482 -13.6155
   -13.5268 -13.4651 -13.4517 -13.3723 -13.3427 -13.3138 -13.2787 -13.2198
    -3.6647  -3.1825  -3.0985  -2.8487  -1.6489  -1.4741  -1.2072  -1.1958
    -1.1446  -0.8891  -0.6778  -0.6311  -0.5581  -0.5234  -0.4688  -0.2214
     0.4260   0.5345   0.8594   1.0824   1.1654   1.1879   1.2144   1.4292
     1.5657   1.7932   1.8861   2.0421   2.0874   2.2156   2.3933   2.4734
     2.5112   2.5824   2.5886   2.6093   2.7223   2.9262   2.9678   3.2239
     3.2298   3.4023   3.4696   3.5798   3.6054   3.6411   3.9230   4.0270
     4.6150   4.6731   4.7525   4.8138   4.8286   4.8604   4.9159   5.0470
     5.1482   5.1922   5.2295   5.2986   6.1279   6.1855   6.7837   6.8490
     6.8819   7.2526   7.2886   7.4330  10.7472  12.6576  12.7385  13.3358
    13.6098  13.6431  13.6996  13.7668

     occupation numbers 
     1.0000   1.0000   1.0000   1.0000   1.0000   1.0000   1.0000   1.0000
     1.0000   1.0000   1.0000   1.0000   1.0000   1.0000   1.0000   1.0000
     1.0000   1.0000   1.0000   1.0000   1.0000   1.0000   1.0000   1.0000
     1.0000   1.0000   1.0000   1.0000   1.0000   1.0000   1.0000   1.0000
     1.0000   1.0000   1.0000   1.0000   1.0000   1.0000   1.0000   1.0000
     1.0000   1.0000   1.0000   1.0000   1.0000   1.0000   1.0000   1.0000
     1.0000   1.0000   1.0000   1.0000   1.0000   1.0000   1.0000   1.0000
     1.0000   1.0000   1.0000   1.0000   1.0000   1.0000   1.0000   1.0000
     1.0000   1.0000   1.0000   1.0000   1.0000   1.0000   1.0000   1.0000
     1.0000   1.0000   1.0000   1.0000   1.0000   1.0000   1.0000   1.0000
     1.0000   1.0000   1.0000   1.0000   1.0000   1.0000   1.0000   1.0000
     0.9898   0.5134   0.0284   0.0000   0.0000   0.0000   0.0000   0.0000
     0.0000   0.0000   0.0000   0.0000   0.0000   0.0000   0.0000   0.0000
     0.0000   0.0000   0.0000   0.0000

          k = 0.0000 0.3378 0.6805 (  5405 PWs)   bands (ev):

   -82.3383 -82.3381 -82.3363 -82.3350 -47.6504 -47.6503 -47.6370 -47.6322
   -47.5876 -47.5841 -47.5795 -47.5781 -47.5271 -47.5261 -47.5197 -47.5105
   -16.1019 -15.9758 -15.8798 -15.8200 -13.8200 -13.8038 -13.6689 -13.6434
   -13.5252 -13.4946 -13.4422 -13.3893 -13.3539 -13.3283 -13.2761 -13.2472
    -3.4926  -3.1760  -3.1055  -2.9555  -1.4149  -1.2669  -1.2029  -1.1491
    -1.0176  -0.9450  -0.7922  -0.7295  -0.6225  -0.3596  -0.2214  -0.2108
     0.4291   0.5107   0.7073   0.8889   1.1401   1.2516   1.3304   1.4579
     1.5236   1.6675   1.7180   1.9212   2.0632   2.2083   2.3245   2.3637
     2.4170   2.4370   2.6229   2.6545   2.7477   2.9094   2.9170   3.0682
     3.2422   3.3278   3.5243   3.5773   3.6779   3.7694   3.8862   4.0434
     4.6492   4.6529   4.6990   4.7446   4.8252   4.8917   4.9834   5.0406
     5.0936   5.1701   5.3515   5.3962   6.2539   6.3101   6.6273   6.6888
     6.9642   7.1918   7.2394   7.3570  11.5567  12.9998  13.0701  13.3725
    13.4670  13.5167  13.5893  13.7255

     occupation numbers 
     1.0000   1.0000   1.0000   1.0000   1.0000   1.0000   1.0000   1.0000
     1.0000   1.0000   1.0000   1.0000   1.0000   1.0000   1.0000   1.0000
     1.0000   1.0000   1.0000   1.0000   1.0000   1.0000   1.0000   1.0000
     1.0000   1.0000   1.0000   1.0000   1.0000   1.0000   1.0000   1.0000
     1.0000   1.0000   1.0000   1.0000   1.0000   1.0000   1.0000   1.0000
     1.0000   1.0000   1.0000   1.0000   1.0000   1.0000   1.0000   1.0000
     1.0000   1.0000   1.0000   1.0000   1.0000   1.0000   1.0000   1.0000
     1.0000   1.0000   1.0000   1.0000   1.0000   1.0000   1.0000   1.0000
     1.0000   1.0000   1.0000   1.0000   1.0000   1.0000   1.0000   1.0000
     1.0000   1.0000   1.0000   1.0000   1.0000   1.0000   1.0000   1.0000
     1.0000   1.0000   1.0000   1.0000   1.0000   1.0000   1.0000   1.0000
     1.0000   0.8815   0.0000   0.0000   0.0000   0.0000   0.0000   0.0000
     0.0000   0.0000   0.0000   0.0000   0.0000   0.0000   0.0000   0.0000
     0.0000   0.0000   0.0000   0.0000

          k = 0.0000 0.3378-1.0208 (  5388 PWs)   bands (ev):

   -82.3375 -82.3375 -82.3343 -82.3343 -47.6455 -47.6455 -47.6318 -47.6318
   -47.5824 -47.5824 -47.5753 -47.5753 -47.5219 -47.5219 -47.5137 -47.5137
   -16.0217 -16.0217 -15.8334 -15.8334 -13.8356 -13.8356 -13.6777 -13.6777
   -13.5116 -13.5116 -13.4160 -13.4160 -13.3459 -13.3459 -13.2676 -13.2676
    -3.2702  -3.2702  -3.0775  -3.0775  -1.2771  -1.2771  -1.0404  -1.0404
    -0.9508  -0.9508  -0.8779  -0.8779  -0.5235  -0.5235  -0.0286  -0.0286
     0.5211   0.5211   0.6292   0.6292   1.2579   1.2579   1.3901   1.3901
     1.5780   1.5780   1.6821   1.6821   2.1359   2.1359   2.2718   2.2718
     2.4602   2.4602   2.5879   2.5879   2.8009   2.8009   2.9396   2.9396
     3.3533   3.3533   3.5440   3.5440   3.7564   3.7564   4.0061   4.0061
     4.6931   4.6931   4.7070   4.7070   4.8406   4.8406   5.0281   5.0281
     5.0929   5.0929   5.4354   5.4354   6.4379   6.4379   6.4899   6.4899
     7.0750   7.0750   7.2754   7.2754  12.5220  12.5220  13.3947  13.3947
    13.4200  13.4200  13.6266  13.6267

     occupation numbers 
     1.0000   1.0000   1.0000   1.0000   1.0000   1.0000   1.0000   1.0000
     1.0000   1.0000   1.0000   1.0000   1.0000   1.0000   1.0000   1.0000
     1.0000   1.0000   1.0000   1.0000   1.0000   1.0000   1.0000   1.0000
     1.0000   1.0000   1.0000   1.0000   1.0000   1.0000   1.0000   1.0000
     1.0000   1.0000   1.0000   1.0000   1.0000   1.0000   1.0000   1.0000
     1.0000   1.0000   1.0000   1.0000   1.0000   1.0000   1.0000   1.0000
     1.0000   1.0000   1.0000   1.0000   1.0000   1.0000   1.0000   1.0000
     1.0000   1.0000   1.0000   1.0000   1.0000   1.0000   1.0000   1.0000
     1.0000   1.0000   1.0000   1.0000   1.0000   1.0000   1.0000   1.0000
     1.0000   1.0000   1.0000   1.0000   1.0000   1.0000   1.0000   1.0000
     1.0000   1.0000   1.0000   1.0000   1.0000   1.0000   1.0000   1.0000
     1.0000   1.0000   0.0000   0.0000   0.0000   0.0000   0.0000   0.0000
     0.0000   0.0000   0.0000   0.0000   0.0000   0.0000   0.0000   0.0000
     0.0000   0.0000   0.0000   0.0000

          k = 0.0000 0.6755 0.0000 (  5400 PWs)   bands (ev):

   -82.3366 -82.3361 -82.3359 -82.3357 -47.6450 -47.6429 -47.6421 -47.6375
   -47.5861 -47.5840 -47.5838 -47.5798 -47.5149 -47.5144 -47.5118 -47.5087
   -16.0964 -15.9545 -15.9515 -15.9463 -13.7772 -13.7326 -13.6770 -13.6383
   -13.5085 -13.4679 -13.4423 -13.4076 -13.2941 -13.2598 -13.2472 -13.2454
    -3.5582  -3.3526  -2.9609  -2.8534  -1.5685  -1.4296  -1.3613  -1.3068
    -0.9293  -0.7729  -0.7539  -0.7172  -0.5871  -0.4234  -0.3945  -0.3770
     0.6059   0.6180   0.6729   0.9264   1.0273   1.0529   1.4919   1.5367
     1.5672   1.7221   1.8267   1.8336   2.1091   2.2065   2.2509   2.4873
     2.6282   2.6283   2.7797   2.7807   2.7996   2.8765   2.9407   3.1243
     3.1256   3.1279   3.3728   3.5651   3.6762   3.6852   3.8761   3.9206
     4.6421   4.7077   4.7191   4.7462   4.8389   4.8618   4.9261   5.0061
     5.0711   5.1205   5.3026   5.3471   6.2182   6.2223   6.4910   6.5289
     7.1457   7.3750   7.3757   7.3991  11.2624  12.3216  12.9358  13.0372
    13.5194  13.7049  14.0833  14.1328

     occupation numbers 
     1.0000   1.0000   1.0000   1.0000   1.0000   1.0000   1.0000   1.0000
     1.0000   1.0000   1.0000   1.0000   1.0000   1.0000   1.0000   1.0000
     1.0000   1.0000   1.0000   1.0000   1.0000   1.0000   1.0000   1.0000
     1.0000   1.0000   1.0000   1.0000   1.0000   1.0000   1.0000   1.0000
     1.0000   1.0000   1.0000   1.0000   1.0000   1.0000   1.0000   1.0000
     1.0000   1.0000   1.0000   1.0000   1.0000   1.0000   1.0000   1.0000
     1.0000   1.0000   1.0000   1.0000   1.0000   1.0000   1.0000   1.0000
     1.0000   1.0000   1.0000   1.0000   1.0000   1.0000   1.0000   1.0000
     1.0000   1.0000   1.0000   1.0000   1.0000   1.0000   1.0000   1.0000
     1.0000   1.0000   1.0000   1.0000   1.0000   1.0000   1.0000   1.0000
     1.0000   1.0000   1.0000   1.0000   1.0000   1.0000   1.0000   1.0000
     1.0000   0.9999   0.0000   0.0000   0.0000   0.0000   0.0000   0.0000
     0.0000   0.0000   0.0000   0.0000   0.0000   0.0000   0.0000   0.0000
     0.0000   0.0000   0.0000   0.0000

          k = 0.0000 0.6755 0.3403 (  5382 PWs)   bands (ev):

   -82.3368 -82.3351 -82.3347 -82.3345 -47.6419 -47.6385 -47.6340 -47.6323
   -47.5877 -47.5823 -47.5755 -47.5741 -47.5151 -47.5113 -47.5109 -47.5094
   -16.0708 -15.9452 -15.9361 -15.9298 -13.7988 -13.7739 -13.6518 -13.6314
   -13.5522 -13.5175 -13.4233 -13.3917 -13.3010 -13.2666 -13.2545 -13.2521
    -3.5029  -3.3135  -2.9733  -2.8706  -1.4653  -1.3846  -1.2832  -1.2652
    -0.9579  -0.8823  -0.6377  -0.5559  -0.5392  -0.4958  -0.4522  -0.3980
     0.5199   0.6090   0.6283   0.8956   1.0208   1.0538   1.4270   1.5006
     1.5832   1.8306   1.8664   1.9696   1.9993   2.0063   2.3590   2.4677
     2.5661   2.5966   2.7287   2.7420   2.9048   2.9088   2.9726   3.0203
     3.2256   3.3238   3.3244   3.4214   3.6239   3.6343   3.8565   3.8660
     4.6242   4.6636   4.7497   4.7926   4.8586   4.8672   4.9641   5.0930
     5.1404   5.1543   5.2880   5.3290   6.1852   6.2324   6.4389   6.4823
     7.1667   7.3634   7.3690   7.3805  11.5239  12.4878  13.0770  13.1582
    13.5081  13.5935  13.9479  14.1133

     occupation numbers 
     1.0000   1.0000   1.0000   1.0000   1.0000   1.0000   1.0000   1.0000
     1.0000   1.0000   1.0000   1.0000   1.0000   1.0000   1.0000   1.0000
     1.0000   1.0000   1.0000   1.0000   1.0000   1.0000   1.0000   1.0000
     1.0000   1.0000   1.0000   1.0000   1.0000   1.0000   1.0000   1.0000
     1.0000   1.0000   1.0000   1.0000   1.0000   1.0000   1.0000   1.0000
     1.0000   1.0000   1.0000   1.0000   1.0000   1.0000   1.0000   1.0000
     1.0000   1.0000   1.0000   1.0000   1.0000   1.0000   1.0000   1.0000
     1.0000   1.0000   1.0000   1.0000   1.0000   1.0000   1.0000   1.0000
     1.0000   1.0000   1.0000   1.0000   1.0000   1.0000   1.0000   1.0000
     1.0000   1.0000   1.0000   1.0000   1.0000   1.0000   1.0000   1.0000
     1.0000   1.0000   1.0000   1.0000   1.0000   1.0000   1.0000   1.0000
     0.9968   0.9775   0.0000   0.0000   0.0000   0.0000   0.0000   0.0000
     0.0000   0.0000   0.0000   0.0000   0.0000   0.0000   0.0000   0.0000
     0.0000   0.0000   0.0000   0.0000

          k = 0.0000 0.6755 0.6805 (  5407 PWs)   bands (ev):

   -82.3378 -82.3374 -82.3370 -82.3354 -47.6489 -47.6466 -47.6374 -47.6367
   -47.5941 -47.5861 -47.5797 -47.5754 -47.5242 -47.5232 -47.5169 -47.5163
   -16.0114 -15.9367 -15.9012 -15.8971 -13.8437 -13.8352 -13.6511 -13.6411
   -13.5903 -13.5735 -13.4079 -13.3887 -13.3088 -13.2854 -13.2677 -13.2633
    -3.3573  -3.2306  -3.0159  -2.9602  -1.2900  -1.1963  -1.1921  -1.1116
    -0.9413  -0.9224  -0.7078  -0.6837  -0.6128  -0.5180  -0.2304  -0.2170
     0.3565   0.4476   0.5942   0.7478   1.0747   1.1570   1.4494   1.5170
     1.6790   1.6790   1.7319   1.8269   2.0247   2.1314   2.2836   2.2926
     2.5146   2.5541   2.6593   2.7087   2.8060   2.8272   2.8801   2.9114
     3.2898   3.3098   3.5026   3.5117   3.5737   3.6115   3.8020   3.8576
     4.6474   4.6568   4.7930   4.8206   4.9141   4.9249   5.0056   5.0518
     5.1902   5.2279   5.3060   5.3109   6.1741   6.2286   6.3216   6.3734
     7.2116   7.3211   7.3396   7.3606  12.1928  12.9117  13.3419  13.3698
    13.4500  13.5271  13.7937  13.9346

     occupation numbers 
     1.0000   1.0000   1.0000   1.0000   1.0000   1.0000   1.0000   1.0000
     1.0000   1.0000   1.0000   1.0000   1.0000   1.0000   1.0000   1.0000
     1.0000   1.0000   1.0000   1.0000   1.0000   1.0000   1.0000   1.0000
     1.0000   1.0000   1.0000   1.0000   1.0000   1.0000   1.0000   1.0000
     1.0000   1.0000   1.0000   1.0000   1.0000   1.0000   1.0000   1.0000
     1.0000   1.0000   1.0000   1.0000   1.0000   1.0000   1.0000   1.0000
     1.0000   1.0000   1.0000   1.0000   1.0000   1.0000   1.0000   1.0000
     1.0000   1.0000   1.0000   1.0000   1.0000   1.0000   1.0000   1.0000
     1.0000   1.0000   1.0000   1.0000   1.0000   1.0000   1.0000   1.0000
     1.0000   1.0000   1.0000   1.0000   1.0000   1.0000   1.0000   1.0000
     1.0000   1.0000   1.0000   1.0000   1.0000   1.0000   1.0000   1.0000
     0.5558   0.0343   0.0000   0.0000   0.0000   0.0000   0.0000   0.0000
     0.0000   0.0000   0.0000   0.0000   0.0000   0.0000   0.0000   0.0000
     0.0000   0.0000   0.0000   0.0000

          k = 0.0000 0.6755-1.0208 (  5408 PWs)   bands (ev):

   -82.3371 -82.3371 -82.3370 -82.3370 -47.6424 -47.6424 -47.6401 -47.6401
   -47.5898 -47.5898 -47.5796 -47.5796 -47.5247 -47.5247 -47.5186 -47.5186
   -15.9565 -15.9565 -15.8816 -15.8816 -13.8647 -13.8647 -13.6726 -13.6726
   -13.5798 -13.5798 -13.3983 -13.3983 -13.3025 -13.3025 -13.2707 -13.2707
    -3.2012  -3.2012  -3.0594  -3.0594  -1.1917  -1.1917  -1.0242  -1.0242
    -0.8749  -0.8749  -0.7934  -0.7934  -0.6342  -0.6342  -0.0640  -0.0640
     0.3360   0.3360   0.5864   0.5864   1.2717   1.2717   1.4421   1.4421
     1.6056   1.6056   1.7295   1.7295   2.1226   2.1226   2.1825   2.1825
     2.5422   2.5422   2.6038   2.6038   2.7583   2.7583   2.8254   2.8254
     3.3430   3.3430   3.4934   3.4934   3.7204   3.7204   3.8161   3.8161
     4.6899   4.6899   4.8203   4.8203   4.9575   4.9575   5.0443   5.0443
     5.1262   5.1262   5.3650   5.3650   6.2202   6.2202   6.2709   6.2709
     7.2662   7.2662   7.3416   7.3416  12.9775  12.9776  13.4087  13.4087
    13.4144  13.4144  13.7791  13.7792

     occupation numbers 
     1.0000   1.0000   1.0000   1.0000   1.0000   1.0000   1.0000   1.0000
     1.0000   1.0000   1.0000   1.0000   1.0000   1.0000   1.0000   1.0000
     1.0000   1.0000   1.0000   1.0000   1.0000   1.0000   1.0000   1.0000
     1.0000   1.0000   1.0000   1.0000   1.0000   1.0000   1.0000   1.0000
     1.0000   1.0000   1.0000   1.0000   1.0000   1.0000   1.0000   1.0000
     1.0000   1.0000   1.0000   1.0000   1.0000   1.0000   1.0000   1.0000
     1.0000   1.0000   1.0000   1.0000   1.0000   1.0000   1.0000   1.0000
     1.0000   1.0000   1.0000   1.0000   1.0000   1.0000   1.0000   1.0000
     1.0000   1.0000   1.0000   1.0000   1.0000   1.0000   1.0000   1.0000
     1.0000   1.0000   1.0000   1.0000   1.0000   1.0000   1.0000   1.0000
     1.0000   1.0000   1.0000   1.0000   1.0000   1.0000   1.0000   1.0000
     0.9997   0.9997   0.0000   0.0000   0.0000   0.0000   0.0000   0.0000
     0.0000   0.0000   0.0000   0.0000   0.0000   0.0000   0.0000   0.0000
     0.0000   0.0000   0.0000   0.0000

          k = 0.3333 0.0000 0.0000 (  5393 PWs)   bands (ev):

   -82.3376 -82.3369 -82.3355 -82.3352 -47.6460 -47.6424 -47.6353 -47.6350
   -47.5923 -47.5900 -47.5847 -47.5766 -47.5197 -47.5163 -47.5092 -47.5087
   -16.2095 -16.1019 -15.8635 -15.8092 -13.7295 -13.6981 -13.6348 -13.6182
   -13.4978 -13.4838 -13.3757 -13.3673 -13.3620 -13.3553 -13.2751 -13.2157
    -3.6729  -3.3685  -3.0423  -2.8705  -1.7670  -1.6279  -1.2025  -1.1757
    -1.1446  -0.9555  -0.8937  -0.8546  -0.5756  -0.5431  -0.2771  -0.1314
     0.3523   0.4604   1.1300   1.1435   1.2575   1.2690   1.3398   1.4628
     1.7001   1.7867   1.9019   2.1291   2.1394   2.2490   2.2867   2.3806
     2.4432   2.5041   2.5847   2.6589   2.7313   2.7696   3.1473   3.3218
     3.3917   3.4066   3.4790   3.4812   3.5007   3.6801   3.8676   4.1770
     4.7410   4.7697   4.7795   4.8180   4.8884   4.9073   5.0018   5.0264
     5.0577   5.0672   5.0785   5.1933   6.1333   6.1336   6.7720   6.9650
     7.1406   7.1552   7.3098   7.3922  10.4437  11.3159  13.2776  13.5447
    13.6631  13.7532  13.7613  13.9141

     occupation numbers 
     1.0000   1.0000   1.0000   1.0000   1.0000   1.0000   1.0000   1.0000
     1.0000   1.0000   1.0000   1.0000   1.0000   1.0000   1.0000   1.0000
     1.0000   1.0000   1.0000   1.0000   1.0000   1.0000   1.0000   1.0000
     1.0000   1.0000   1.0000   1.0000   1.0000   1.0000   1.0000   1.0000
     1.0000   1.0000   1.0000   1.0000   1.0000   1.0000   1.0000   1.0000
     1.0000   1.0000   1.0000   1.0000   1.0000   1.0000   1.0000   1.0000
     1.0000   1.0000   1.0000   1.0000   1.0000   1.0000   1.0000   1.0000
     1.0000   1.0000   1.0000   1.0000   1.0000   1.0000   1.0000   1.0000
     1.0000   1.0000   1.0000   1.0000   1.0000   1.0000   1.0000   1.0000
     1.0000   1.0000   1.0000   1.0000   1.0000   1.0000   1.0000   1.0000
     1.0000   1.0000   1.0000   1.0000   1.0000   1.0000   1.0000   1.0000
     1.0000   1.0000   1.0000   0.4911   0.0000   0.0000   0.0000   0.0000
     0.0000   0.0000   0.0000   0.0000   0.0000   0.0000   0.0000   0.0000
     0.0000   0.0000   0.0000   0.0000

          k = 0.3333 0.0000 0.3403 (  5395 PWs)   bands (ev):

   -82.3375 -82.3368 -82.3367 -82.3348 -47.6458 -47.6431 -47.6346 -47.6266
   -47.5901 -47.5875 -47.5857 -47.5827 -47.5244 -47.5176 -47.5134 -47.5094
   -16.1801 -16.0810 -15.8566 -15.8049 -13.7470 -13.7206 -13.6515 -13.6379
   -13.4883 -13.4747 -13.3886 -13.3749 -13.3661 -13.3635 -13.2831 -13.2293
    -3.6209  -3.3511  -3.0383  -2.8844  -1.6783  -1.5734  -1.1997  -1.1602
    -1.1137  -0.9653  -0.8052  -0.7749  -0.5749  -0.4820  -0.3635  -0.1904
     0.3725   0.4663   1.1045   1.1290   1.2233   1.2482   1.3841   1.4824
     1.5937   1.6740   1.7491   2.0927   2.1435   2.2442   2.4007   2.4085
     2.4308   2.4439   2.5563   2.6116   2.7442   2.8524   3.1994   3.2835
     3.3546   3.3651   3.4385   3.4766   3.5678   3.6836   3.9218   4.1723
     4.6260   4.6916   4.7621   4.7634   4.8345   4.9654   4.9999   5.0555
     5.0599   5.1433   5.1634   5.2248   6.1991   6.2171   6.7802   6.9471
     7.0849   7.0969   7.2638   7.3446  10.7680  11.5684  13.2570  13.3836
    13.7055  13.7089  13.7695  13.8360

     occupation numbers 
     1.0000   1.0000   1.0000   1.0000   1.0000   1.0000   1.0000   1.0000
     1.0000   1.0000   1.0000   1.0000   1.0000   1.0000   1.0000   1.0000
     1.0000   1.0000   1.0000   1.0000   1.0000   1.0000   1.0000   1.0000
     1.0000   1.0000   1.0000   1.0000   1.0000   1.0000   1.0000   1.0000
     1.0000   1.0000   1.0000   1.0000   1.0000   1.0000   1.0000   1.0000
     1.0000   1.0000   1.0000   1.0000   1.0000   1.0000   1.0000   1.0000
     1.0000   1.0000   1.0000   1.0000   1.0000   1.0000   1.0000   1.0000
     1.0000   1.0000   1.0000   1.0000   1.0000   1.0000   1.0000   1.0000
     1.0000   1.0000   1.0000   1.0000   1.0000   1.0000   1.0000   1.0000
     1.0000   1.0000   1.0000   1.0000   1.0000   1.0000   1.0000   1.0000
     1.0000   1.0000   1.0000   1.0000   1.0000   1.0000   1.0000   1.0000
     1.0000   0.9950   0.9371   0.0486   0.0000   0.0000   0.0000   0.0000
     0.0000   0.0000   0.0000   0.0000   0.0000   0.0000   0.0000   0.0000
     0.0000   0.0000   0.0000   0.0000

          k = 0.3333 0.0000 0.6805 (  5389 PWs)   bands (ev):

   -82.3386 -82.3367 -82.3365 -82.3323 -47.6470 -47.6447 -47.6358 -47.6278
   -47.5896 -47.5826 -47.5813 -47.5701 -47.5282 -47.5208 -47.5178 -47.4994
   -16.1101 -16.0435 -15.8405 -15.8029 -13.7856 -13.7702 -13.6893 -13.6769
   -13.4629 -13.4514 -13.4024 -13.3957 -13.3858 -13.3847 -13.2895 -13.2572
    -3.4730  -3.2994  -3.0777  -2.9807  -1.4548  -1.3779  -1.1696  -1.1626
    -1.0801  -1.0008  -0.6840  -0.6406  -0.4993  -0.4119  -0.3505  -0.3131
     0.4489   0.5273   0.9768   1.0561   1.1673   1.2794   1.3268   1.4678
     1.4926   1.5656   1.6154   1.7910   2.2133   2.2538   2.2756   2.3015
     2.3518   2.4348   2.5183   2.5552   2.8485   3.0371   3.1507   3.1661
     3.2278   3.4207   3.4210   3.4763   3.6758   3.8348   4.0296   4.1854
     4.5768   4.6065   4.6893   4.7288   4.7727   4.9630   5.0000   5.0734
     5.1033   5.1538   5.2656   5.3369   6.3982   6.4216   6.8071   6.9002
     6.9208   6.9345   7.1865   7.2400  11.5548  12.1721  13.3086  13.3881
    13.4973  13.5573  13.5838  13.5843

     occupation numbers 
     1.0000   1.0000   1.0000   1.0000   1.0000   1.0000   1.0000   1.0000
     1.0000   1.0000   1.0000   1.0000   1.0000   1.0000   1.0000   1.0000
     1.0000   1.0000   1.0000   1.0000   1.0000   1.0000   1.0000   1.0000
     1.0000   1.0000   1.0000   1.0000   1.0000   1.0000   1.0000   1.0000
     1.0000   1.0000   1.0000   1.0000   1.0000   1.0000   1.0000   1.0000
     1.0000   1.0000   1.0000   1.0000   1.0000   1.0000   1.0000   1.0000
     1.0000   1.0000   1.0000   1.0000   1.0000   1.0000   1.0000   1.0000
     1.0000   1.0000   1.0000   1.0000   1.0000   1.0000   1.0000   1.0000
     1.0000   1.0000   1.0000   1.0000   1.0000   1.0000   1.0000   1.0000
     1.0000   1.0000   1.0000   1.0000   1.0000   1.0000   1.0000   1.0000
     1.0000   1.0000   1.0000   1.0000   1.0000   1.0000   1.0000   1.0000
     1.0000   0.9787   0.0001   0.0000   0.0000   0.0000   0.0000   0.0000
     0.0000   0.0000   0.0000   0.0000   0.0000   0.0000   0.0000   0.0000
     0.0000   0.0000   0.0000   0.0000

          k = 0.3333 0.0000-1.0208 (  5410 PWs)   bands (ev):

   -82.3386 -82.3386 -82.3361 -82.3361 -47.6469 -47.6469 -47.6336 -47.6336
   -47.5915 -47.5915 -47.5815 -47.5815 -47.5254 -47.5254 -47.5216 -47.5216
   -16.0479 -16.0479 -15.8186 -15.8186 -13.8012 -13.8012 -13.7040 -13.7040
   -13.4333 -13.4333 -13.4140 -13.4140 -13.4012 -13.4012 -13.2803 -13.2803
    -3.2990  -3.2990  -3.1146  -3.1146  -1.2712  -1.2712  -1.1508  -1.1508
    -1.0887  -1.0887  -0.6100  -0.6100  -0.5024  -0.5024  -0.2297  -0.2297
     0.6553   0.6553   0.7711   0.7711   1.2737   1.2737   1.2891   1.2891
     1.4159   1.4159   1.7146   1.7146   2.1529   2.1529   2.3194   2.3194
     2.3628   2.3628   2.4695   2.4695   2.9743   2.9743   3.1495   3.1495
     3.2758   3.2758   3.4365   3.4365   3.8642   3.8642   4.1308   4.1308
     4.6224   4.6224   4.6396   4.6396   4.8477   4.8477   5.0275   5.0275
     5.1435   5.1435   5.3461   5.3461   6.6613   6.6613   6.6906   6.6906
     6.8487   6.8487   7.1674   7.1674  12.4035  12.4035  13.1260  13.1261
    13.4999  13.4999  13.5112  13.5113

     occupation numbers 
     1.0000   1.0000   1.0000   1.0000   1.0000   1.0000   1.0000   1.0000
     1.0000   1.0000   1.0000   1.0000   1.0000   1.0000   1.0000   1.0000
     1.0000   1.0000   1.0000   1.0000   1.0000   1.0000   1.0000   1.0000
     1.0000   1.0000   1.0000   1.0000   1.0000   1.0000   1.0000   1.0000
     1.0000   1.0000   1.0000   1.0000   1.0000   1.0000   1.0000   1.0000
     1.0000   1.0000   1.0000   1.0000   1.0000   1.0000   1.0000   1.0000
     1.0000   1.0000   1.0000   1.0000   1.0000   1.0000   1.0000   1.0000
     1.0000   1.0000   1.0000   1.0000   1.0000   1.0000   1.0000   1.0000
     1.0000   1.0000   1.0000   1.0000   1.0000   1.0000   1.0000   1.0000
     1.0000   1.0000   1.0000   1.0000   1.0000   1.0000   1.0000   1.0000
     1.0000   1.0000   1.0000   1.0000   1.0000   1.0000   1.0000   1.0000
     0.9948   0.9948   0.0000   0.0000   0.0000   0.0000   0.0000   0.0000
     0.0000   0.0000   0.0000   0.0000   0.0000   0.0000   0.0000   0.0000
     0.0000   0.0000   0.0000   0.0000

          k = 0.3333 0.3378 0.0000 (  5388 PWs)   bands (ev):

   -82.3385 -82.3364 -82.3352 -82.3338 -47.6505 -47.6406 -47.6301 -47.6284
   -47.5965 -47.5899 -47.5868 -47.5785 -47.5137 -47.5131 -47.5064 -47.5046
   -16.1708 -16.0743 -15.8802 -15.8456 -13.7438 -13.7056 -13.6490 -13.6261
   -13.5003 -13.4796 -13.4245 -13.4094 -13.3119 -13.3061 -13.2632 -13.2255
    -3.6014  -3.3019  -3.0906  -2.8938  -1.6884  -1.5772  -1.2007  -1.1816
    -1.1032  -0.8832  -0.8654  -0.8517  -0.5835  -0.5382  -0.2984  -0.2070
     0.4187   0.5128   0.9558   1.0680   1.1761   1.2526   1.4810   1.5111
     1.5997   1.9019   1.9502   2.0415   2.0983   2.1594   2.2383   2.2985
     2.4546   2.5825   2.6080   2.6181   2.7946   2.8818   3.0547   3.2120
     3.3688   3.3868   3.4408   3.5561   3.5625   3.6856   3.7792   4.0354
     4.6827   4.7293   4.7902   4.8489   4.8914   4.9034   4.9428   4.9779
     5.0022   5.1268   5.1884   5.2860   6.1105   6.1173   6.8504   6.8526
     6.9869   7.1469   7.4019   7.4488  10.7420  11.5489  13.3646  13.3994
    13.5630  13.8037  13.9108  13.9740

     occupation numbers 
     1.0000   1.0000   1.0000   1.0000   1.0000   1.0000   1.0000   1.0000
     1.0000   1.0000   1.0000   1.0000   1.0000   1.0000   1.0000   1.0000
     1.0000   1.0000   1.0000   1.0000   1.0000   1.0000   1.0000   1.0000
     1.0000   1.0000   1.0000   1.0000   1.0000   1.0000   1.0000   1.0000
     1.0000   1.0000   1.0000   1.0000   1.0000   1.0000   1.0000   1.0000
     1.0000   1.0000   1.0000   1.0000   1.0000   1.0000   1.0000   1.0000
     1.0000   1.0000   1.0000   1.0000   1.0000   1.0000   1.0000   1.0000
     1.0000   1.0000   1.0000   1.0000   1.0000   1.0000   1.0000   1.0000
     1.0000   1.0000   1.0000   1.0000   1.0000   1.0000   1.0000   1.0000
     1.0000   1.0000   1.0000   1.0000   1.0000   1.0000   1.0000   1.0000
     1.0000   1.0000   1.0000   1.0000   1.0000   1.0000   1.0000   1.0000
     1.0000   0.9997   0.5913   0.0000   0.0000   0.0000   0.0000   0.0000
     0.0000   0.0000   0.0000   0.0000   0.0000   0.0000   0.0000   0.0000
     0.0000   0.0000   0.0000   0.0000

          k = 0.3333 0.3378 0.3403 (  5395 PWs)   bands (ev):

   -82.3372 -82.3370 -82.3365 -82.3349 -47.6468 -47.6396 -47.6372 -47.6315
   -47.5904 -47.5887 -47.5838 -47.5795 -47.5208 -47.5184 -47.5124 -47.5093
   -16.1432 -16.0548 -15.8719 -15.8384 -13.7623 -13.7321 -13.6577 -13.6499
   -13.4953 -13.4727 -13.4404 -13.4067 -13.3257 -13.3137 -13.2664 -13.2367
    -3.5557  -3.2890  -3.0817  -2.9061  -1.6032  -1.5260  -1.1730  -1.1391
    -1.1065  -0.8878  -0.8195  -0.7729  -0.5790  -0.4815  -0.3566  -0.2434
     0.4213   0.4784   0.9253   1.0246   1.1947   1.2552   1.4128   1.4881
     1.5454   1.7688   1.8964   2.0315   2.0585   2.1869   2.2884   2.3757
     2.4143   2.4770   2.6310   2.6421   2.7984   2.9065   3.1210   3.2200
     3.2991   3.4019   3.4540   3.5010   3.5332   3.6771   3.8076   4.0246
     4.6490   4.6899   4.7771   4.7819   4.8690   4.9497   4.9790   5.0575
     5.0715   5.1429   5.1947   5.2695   6.1438   6.1715   6.7912   6.8126
     6.9810   7.1325   7.3652   7.4143  11.0443  11.7902  13.3464  13.4472
    13.4922  13.6664  13.8250  13.9247

     occupation numbers 
     1.0000   1.0000   1.0000   1.0000   1.0000   1.0000   1.0000   1.0000
     1.0000   1.0000   1.0000   1.0000   1.0000   1.0000   1.0000   1.0000
     1.0000   1.0000   1.0000   1.0000   1.0000   1.0000   1.0000   1.0000
     1.0000   1.0000   1.0000   1.0000   1.0000   1.0000   1.0000   1.0000
     1.0000   1.0000   1.0000   1.0000   1.0000   1.0000   1.0000   1.0000
     1.0000   1.0000   1.0000   1.0000   1.0000   1.0000   1.0000   1.0000
     1.0000   1.0000   1.0000   1.0000   1.0000   1.0000   1.0000   1.0000
     1.0000   1.0000   1.0000   1.0000   1.0000   1.0000   1.0000   1.0000
     1.0000   1.0000   1.0000   1.0000   1.0000   1.0000   1.0000   1.0000
     1.0000   1.0000   1.0000   1.0000   1.0000   1.0000   1.0000   1.0000
     1.0000   1.0000   1.0000   1.0000   1.0000   1.0000   1.0000   1.0000
     1.0000   0.9953   0.4608   0.0000   0.0000   0.0000   0.0000   0.0000
     0.0000   0.0000   0.0000   0.0000   0.0000   0.0000   0.0000   0.0000
     0.0000   0.0000   0.0000   0.0000

          k = 0.3333 0.3378 0.6805 (  5402 PWs)   bands (ev):

   -82.3383 -82.3371 -82.3365 -82.3349 -47.6487 -47.6437 -47.6375 -47.6366
   -47.5867 -47.5819 -47.5796 -47.5767 -47.5264 -47.5258 -47.5185 -47.5129
   -16.0778 -16.0190 -15.8535 -15.8278 -13.8027 -13.7856 -13.6976 -13.6890
   -13.4812 -13.4650 -13.4459 -13.4109 -13.3508 -13.3345 -13.2715 -13.2575
    -3.4193  -3.2487  -3.0901  -2.9872  -1.4051  -1.3418  -1.1596  -1.0834
    -1.0788  -0.9300  -0.7049  -0.6580  -0.5541  -0.4026  -0.3533  -0.2778
     0.4205   0.4759   0.8041   0.8656   1.2569   1.2756   1.3826   1.4538
     1.5124   1.5896   1.7467   1.8752   2.0752   2.1329   2.2275   2.2908
     2.3720   2.3907   2.5889   2.6615   2.8144   2.9777   3.1227   3.2066
     3.2162   3.3348   3.4508   3.5116   3.6333   3.7535   3.8950   4.0232
     4.6649   4.6763   4.7442   4.7828   4.8236   4.9642   4.9834   5.0629
     5.1000   5.1751   5.2617   5.3119   6.2673   6.2948   6.6404   6.6695
     7.0106   7.1073   7.2907   7.3353  11.7927  12.3744  13.3592  13.4261
    13.5072  13.5844  13.6821  13.7510

     occupation numbers 
     1.0000   1.0000   1.0000   1.0000   1.0000   1.0000   1.0000   1.0000
     1.0000   1.0000   1.0000   1.0000   1.0000   1.0000   1.0000   1.0000
     1.0000   1.0000   1.0000   1.0000   1.0000   1.0000   1.0000   1.0000
     1.0000   1.0000   1.0000   1.0000   1.0000   1.0000   1.0000   1.0000
     1.0000   1.0000   1.0000   1.0000   1.0000   1.0000   1.0000   1.0000
     1.0000   1.0000   1.0000   1.0000   1.0000   1.0000   1.0000   1.0000
     1.0000   1.0000   1.0000   1.0000   1.0000   1.0000   1.0000   1.0000
     1.0000   1.0000   1.0000   1.0000   1.0000   1.0000   1.0000   1.0000
     1.0000   1.0000   1.0000   1.0000   1.0000   1.0000   1.0000   1.0000
     1.0000   1.0000   1.0000   1.0000   1.0000   1.0000   1.0000   1.0000
     1.0000   1.0000   1.0000   1.0000   1.0000   1.0000   1.0000   1.0000
     1.0000   0.8219   0.0002   0.0000   0.0000   0.0000   0.0000   0.0000
     0.0000   0.0000   0.0000   0.0000   0.0000   0.0000   0.0000   0.0000
     0.0000   0.0000   0.0000   0.0000

          k = 0.3333 0.3378-1.0208 (  5396 PWs)   bands (ev):

   -82.3376 -82.3376 -82.3351 -82.3351 -47.6448 -47.6448 -47.6366 -47.6366
   -47.5827 -47.5827 -47.5745 -47.5745 -47.5238 -47.5238 -47.5171 -47.5171
   -16.0213 -16.0213 -15.8340 -15.8340 -13.8188 -13.8188 -13.7156 -13.7156
   -13.4695 -13.4695 -13.4253 -13.4253 -13.3552 -13.3552 -13.2700 -13.2700
    -3.2575  -3.2575  -3.1008  -3.1008  -1.2407  -1.2407  -1.1301  -1.1301
    -1.0120  -1.0120  -0.6367  -0.6367  -0.5042  -0.5042  -0.2098  -0.2098
     0.5369   0.5369   0.6533   0.6533   1.2903   1.2903   1.4081   1.4081
     1.5567   1.5567   1.6912   1.6912   2.0422   2.0422   2.1769   2.1769
     2.4684   2.4684   2.5070   2.5070   2.9336   2.9336   3.1421   3.1421
     3.2595   3.2595   3.4737   3.4737   3.7898   3.7898   3.9967   3.9967
     4.7231   4.7231   4.7335   4.7335   4.8671   4.8671   5.0034   5.0034
     5.1492   5.1492   5.3323   5.3323   6.4407   6.4407   6.4830   6.4830
     7.0692   7.0692   7.2685   7.2685  12.6156  12.6156  13.2417  13.2417
    13.4955  13.4955  13.6248  13.6248

     occupation numbers 
     1.0000   1.0000   1.0000   1.0000   1.0000   1.0000   1.0000   1.0000
     1.0000   1.0000   1.0000   1.0000   1.0000   1.0000   1.0000   1.0000
     1.0000   1.0000   1.0000   1.0000   1.0000   1.0000   1.0000   1.0000
     1.0000   1.0000   1.0000   1.0000   1.0000   1.0000   1.0000   1.0000
     1.0000   1.0000   1.0000   1.0000   1.0000   1.0000   1.0000   1.0000
     1.0000   1.0000   1.0000   1.0000   1.0000   1.0000   1.0000   1.0000
     1.0000   1.0000   1.0000   1.0000   1.0000   1.0000   1.0000   1.0000
     1.0000   1.0000   1.0000   1.0000   1.0000   1.0000   1.0000   1.0000
     1.0000   1.0000   1.0000   1.0000   1.0000   1.0000   1.0000   1.0000
     1.0000   1.0000   1.0000   1.0000   1.0000   1.0000   1.0000   1.0000
     1.0000   1.0000   1.0000   1.0000   1.0000   1.0000   1.0000   1.0000
     0.9883   0.9883   0.0000   0.0000   0.0000   0.0000   0.0000   0.0000
     0.0000   0.0000   0.0000   0.0000   0.0000   0.0000   0.0000   0.0000
     0.0000   0.0000   0.0000   0.0000

          k = 0.3333 0.6755 0.0000 (  5379 PWs)   bands (ev):

   -82.3368 -82.3354 -82.3340 -82.3337 -47.6394 -47.6367 -47.6333 -47.6326
   -47.5904 -47.5839 -47.5755 -47.5730 -47.5133 -47.5117 -47.5052 -47.5050
   -16.0694 -16.0065 -15.9442 -15.9307 -13.7475 -13.7036 -13.6965 -13.6569
   -13.4963 -13.4610 -13.4579 -13.4396 -13.2762 -13.2619 -13.2489 -13.2481
    -3.4289  -3.2295  -3.1420  -2.9809  -1.4906  -1.4335  -1.3014  -1.2798
    -0.9136  -0.8550  -0.8294  -0.8004  -0.5387  -0.4666  -0.3776  -0.3521
     0.6171   0.6390   0.7641   0.8826   1.1103   1.2670   1.2801   1.5794
     1.6493   1.7749   1.7893   1.9479   2.1026   2.1554   2.2117   2.2755
     2.6095   2.7027   2.7513   2.8073   2.8446   2.9060   2.9454   3.0834
     3.1718   3.2302   3.3050   3.4840   3.6716   3.7364   3.7371   3.8532
     4.6806   4.7031   4.7383   4.7539   4.8828   4.9070   4.9549   4.9852
     5.0840   5.1933   5.2289   5.3100   6.2197   6.2213   6.5004   6.5193
     7.2117   7.3163   7.3968   7.4148  11.5092  12.1596  12.4860  12.9305
    13.7441  13.9382  14.0091  14.0696

     occupation numbers 
     1.0000   1.0000   1.0000   1.0000   1.0000   1.0000   1.0000   1.0000
     1.0000   1.0000   1.0000   1.0000   1.0000   1.0000   1.0000   1.0000
     1.0000   1.0000   1.0000   1.0000   1.0000   1.0000   1.0000   1.0000
     1.0000   1.0000   1.0000   1.0000   1.0000   1.0000   1.0000   1.0000
     1.0000   1.0000   1.0000   1.0000   1.0000   1.0000   1.0000   1.0000
     1.0000   1.0000   1.0000   1.0000   1.0000   1.0000   1.0000   1.0000
     1.0000   1.0000   1.0000   1.0000   1.0000   1.0000   1.0000   1.0000
     1.0000   1.0000   1.0000   1.0000   1.0000   1.0000   1.0000   1.0000
     1.0000   1.0000   1.0000   1.0000   1.0000   1.0000   1.0000   1.0000
     1.0000   1.0000   1.0000   1.0000   1.0000   1.0000   1.0000   1.0000
     1.0000   1.0000   1.0000   1.0000   1.0000   1.0000   1.0000   1.0000
     1.0000   0.4916   0.0304   0.0000   0.0000   0.0000   0.0000   0.0000
     0.0000   0.0000   0.0000   0.0000   0.0000   0.0000   0.0000   0.0000
     0.0000   0.0000   0.0000   0.0000

          k = 0.3333 0.6755 0.3403 (  5378 PWs)   bands (ev):

   -82.3356 -82.3354 -82.3348 -82.3344 -47.6379 -47.6367 -47.6354 -47.6314
   -47.5854 -47.5819 -47.5749 -47.5722 -47.5142 -47.5140 -47.5106 -47.5083
   -16.0466 -15.9895 -15.9294 -15.9185 -13.7698 -13.7449 -13.6926 -13.6735
   -13.5061 -13.4884 -13.4436 -13.4300 -13.2851 -13.2704 -13.2555 -13.2532
    -3.3891  -3.2104  -3.1306  -2.9839  -1.4152  -1.3856  -1.2373  -1.2234
    -0.9431  -0.8690  -0.7625  -0.7474  -0.5336  -0.4428  -0.3829  -0.3643
     0.5486   0.5570   0.7202   0.8010   1.1480   1.2542   1.3519   1.4798
     1.6397   1.7020   1.8499   1.8797   2.0490   2.1336   2.2441   2.3171
     2.5466   2.6678   2.7018   2.8368   2.8616   2.9667   3.0129   3.0721
     3.2498   3.2864   3.3536   3.4527   3.5725   3.6583   3.6957   3.7968
     4.6691   4.6974   4.7380   4.7662   4.9153   4.9464   5.0174   5.0757
     5.1076   5.1759   5.2190   5.2900   6.1977   6.2202   6.4500   6.4708
     7.2161   7.3054   7.3846   7.3943  11.7524  12.3574  12.6357  13.0239
    13.7365  13.8300  13.9548  14.0599

     occupation numbers 
     1.0000   1.0000   1.0000   1.0000   1.0000   1.0000   1.0000   1.0000
     1.0000   1.0000   1.0000   1.0000   1.0000   1.0000   1.0000   1.0000
     1.0000   1.0000   1.0000   1.0000   1.0000   1.0000   1.0000   1.0000
     1.0000   1.0000   1.0000   1.0000   1.0000   1.0000   1.0000   1.0000
     1.0000   1.0000   1.0000   1.0000   1.0000   1.0000   1.0000   1.0000
     1.0000   1.0000   1.0000   1.0000   1.0000   1.0000   1.0000   1.0000
     1.0000   1.0000   1.0000   1.0000   1.0000   1.0000   1.0000   1.0000
     1.0000   1.0000   1.0000   1.0000   1.0000   1.0000   1.0000   1.0000
     1.0000   1.0000   1.0000   1.0000   1.0000   1.0000   1.0000   1.0000
     1.0000   1.0000   1.0000   1.0000   1.0000   1.0000   1.0000   1.0000
     1.0000   1.0000   1.0000   1.0000   1.0000   1.0000   1.0000   1.0000
     1.0000   0.8109   0.0869   0.0000   0.0000   0.0000   0.0000   0.0000
     0.0000   0.0000   0.0000   0.0000   0.0000   0.0000   0.0000   0.0000
     0.0000   0.0000   0.0000   0.0000

          k = 0.3333 0.6755 0.6805 (  5399 PWs)   bands (ev):

   -82.3371 -82.3367 -82.3361 -82.3356 -47.6420 -47.6401 -47.6387 -47.6365
   -47.5853 -47.5802 -47.5786 -47.5765 -47.5259 -47.5220 -47.5189 -47.5170
   -15.9955 -15.9589 -15.8991 -15.8939 -13.8162 -13.8040 -13.7267 -13.7173
   -13.5080 -13.5040 -13.4329 -13.4246 -13.3004 -13.2899 -13.2664 -13.2641
    -3.2879  -3.1711  -3.1135  -3.0254  -1.2695  -1.2280  -1.1624  -1.1069
    -0.9374  -0.8212  -0.7870  -0.6800  -0.5509  -0.4396  -0.3186  -0.2795
     0.4046   0.4683   0.5775   0.6537   1.2266   1.2604   1.4377   1.4720
     1.5845   1.6613   1.7531   1.7974   2.0394   2.1131   2.1235   2.1724
     2.4774   2.5729   2.6154   2.6870   2.8922   3.0009   3.0464   3.1246
     3.2266   3.3065   3.3954   3.4577   3.6117   3.6615   3.7186   3.7980
     4.6960   4.7088   4.7668   4.8020   4.9652   5.0123   5.0521   5.1068
     5.1387   5.1881   5.2231   5.2445   6.1865   6.2132   6.3336   6.3593
     7.2330   7.2831   7.3503   7.3584  12.3657  12.8210  12.9925  13.2135
    13.6905  13.7110  13.8145  13.9245

     occupation numbers 
     1.0000   1.0000   1.0000   1.0000   1.0000   1.0000   1.0000   1.0000
     1.0000   1.0000   1.0000   1.0000   1.0000   1.0000   1.0000   1.0000
     1.0000   1.0000   1.0000   1.0000   1.0000   1.0000   1.0000   1.0000
     1.0000   1.0000   1.0000   1.0000   1.0000   1.0000   1.0000   1.0000
     1.0000   1.0000   1.0000   1.0000   1.0000   1.0000   1.0000   1.0000
     1.0000   1.0000   1.0000   1.0000   1.0000   1.0000   1.0000   1.0000
     1.0000   1.0000   1.0000   1.0000   1.0000   1.0000   1.0000   1.0000
     1.0000   1.0000   1.0000   1.0000   1.0000   1.0000   1.0000   1.0000
     1.0000   1.0000   1.0000   1.0000   1.0000   1.0000   1.0000   1.0000
     1.0000   1.0000   1.0000   1.0000   1.0000   1.0000   1.0000   1.0000
     1.0000   1.0000   1.0000   1.0000   1.0000   1.0000   1.0000   1.0000
     0.9975   0.5975   0.0580   0.0036   0.0000   0.0000   0.0000   0.0000
     0.0000   0.0000   0.0000   0.0000   0.0000   0.0000   0.0000   0.0000
     0.0000   0.0000   0.0000   0.0000

          k = 0.3333 0.6755-1.0208 (  5408 PWs)   bands (ev):

   -82.3375 -82.3375 -82.3362 -82.3362 -47.6437 -47.6437 -47.6367 -47.6367
   -47.5875 -47.5875 -47.5802 -47.5802 -47.5239 -47.5239 -47.5190 -47.5190
   -15.9556 -15.9556 -15.8827 -15.8827 -13.8365 -13.8365 -13.7471 -13.7471
   -13.5043 -13.5043 -13.4262 -13.4262 -13.3039 -13.3039 -13.2702 -13.2702
    -3.1789  -3.1789  -3.0928  -3.0928  -1.1668  -1.1668  -1.0872  -1.0872
    -0.8784  -0.8784  -0.7117  -0.7117  -0.5228  -0.5228  -0.2074  -0.2074
     0.3960   0.3960   0.5323   0.5323   1.3207   1.3207   1.4284   1.4284
     1.6635   1.6635   1.7150   1.7150   1.9918   1.9918   2.0434   2.0434
     2.5014   2.5014   2.5452   2.5452   2.9465   2.9465   3.0919   3.0919
     3.2631   3.2631   3.4148   3.4148   3.7232   3.7232   3.8102   3.8102
     4.7436   4.7436   4.8161   4.8161   4.9996   4.9996   5.0569   5.0569
     5.1230   5.1230   5.2740   5.2740   6.2273   6.2273   6.2582   6.2582
     7.2617   7.2617   7.3341   7.3341  13.0161  13.0161  13.2823  13.2823
    13.5697  13.5697  13.7384  13.7384

     occupation numbers 
     1.0000   1.0000   1.0000   1.0000   1.0000   1.0000   1.0000   1.0000
     1.0000   1.0000   1.0000   1.0000   1.0000   1.0000   1.0000   1.0000
     1.0000   1.0000   1.0000   1.0000   1.0000   1.0000   1.0000   1.0000
     1.0000   1.0000   1.0000   1.0000   1.0000   1.0000   1.0000   1.0000
     1.0000   1.0000   1.0000   1.0000   1.0000   1.0000   1.0000   1.0000
     1.0000   1.0000   1.0000   1.0000   1.0000   1.0000   1.0000   1.0000
     1.0000   1.0000   1.0000   1.0000   1.0000   1.0000   1.0000   1.0000
     1.0000   1.0000   1.0000   1.0000   1.0000   1.0000   1.0000   1.0000
     1.0000   1.0000   1.0000   1.0000   1.0000   1.0000   1.0000   1.0000
     1.0000   1.0000   1.0000   1.0000   1.0000   1.0000   1.0000   1.0000
     1.0000   1.0000   1.0000   1.0000   1.0000   1.0000   1.0000   1.0000
     0.9999   0.9999   0.0000   0.0000   0.0000   0.0000   0.0000   0.0000
     0.0000   0.0000   0.0000   0.0000   0.0000   0.0000   0.0000   0.0000
     0.0000   0.0000   0.0000   0.0000

     the Fermi energy is     5.1929 ev

!    total energy              =   -2038.59719930 Ry
     Harris-Foulkes estimate   =   -2038.59719686 Ry
     estimated scf accuracy    <       0.00000049 Ry

     The total energy is the sum of the following terms:

     one-electron contribution =   -1061.49751309 Ry
     hartree contribution      =     613.75127288 Ry
     xc contribution           =    -276.01769240 Ry
     ewald contribution        =    -858.19478349 Ry
     one-center paw contrib.   =    -456.63770321 Ry
      -> PAW hartree energy AE =     204.91484091 Ry
      -> PAW hartree energy PS =    -204.12611431 Ry
      -> PAW xc energy AE      =    -110.86484070 Ry
      -> PAW xc energy PS      =      34.00165306 Ry
      -> total E_H with PAW    =     614.53999948 Ry
      -> total E_XC with PAW   =    -352.88088004 Ry
     smearing contrib. (-TS)   =      -0.00078000 Ry

     convergence has been achieved in  13 iterations

     negative rho (up, down):  1.028E-03 0.000E+00

     Forces acting on atoms (cartesian axes, Ry/au):

     atom    1 type  2   force =     0.04064175   -0.00000000    0.07468717
     atom    2 type  2   force =    -0.04064175    0.00000000   -0.07468717
     atom    3 type  2   force =    -0.04064175    0.00000000    0.07468717
     atom    4 type  2   force =     0.04064175    0.00000000   -0.07468717
     atom    5 type  1   force =     0.00273697    0.00000000    0.01081842
     atom    6 type  1   force =    -0.00273697    0.00000000   -0.01081842
     atom    7 type  1   force =    -0.00273697    0.00000000    0.01081842
     atom    8 type  1   force =     0.00273697    0.00000000   -0.01081842
     atom    9 type  3   force =     0.01571290   -0.01734203   -0.03090998
     atom   10 type  3   force =    -0.01571290    0.01734203    0.03090998
     atom   11 type  3   force =    -0.01571290    0.01734203   -0.03090998
     atom   12 type  3   force =     0.01571290   -0.01734203    0.03090998
     atom   13 type  3   force =     0.01571290    0.01734203    0.03090998
     atom   14 type  3   force =    -0.01571290   -0.01734203   -0.03090998
     atom   15 type  3   force =    -0.01571290   -0.01734203    0.03090998
     atom   16 type  3   force =     0.01571290    0.01734203   -0.03090998
     atom   17 type  3   force =    -0.00673984   -0.00000000    0.02219825
     atom   18 type  3   force =     0.00673984   -0.00000000   -0.02219825
     atom   19 type  3   force =     0.00673984    0.00000000    0.02219825
     atom   20 type  3   force =    -0.00673984    0.00000000   -0.02219825
     atom   21 type  3   force =    -0.02225738    0.00000000    0.01454329
     atom   22 type  3   force =     0.02225738    0.00000000   -0.01454329
     atom   23 type  3   force =     0.02225738    0.00000000    0.01454329
     atom   24 type  3   force =    -0.02225738    0.00000000   -0.01454329
     The non-local contrib.  to forces
     atom    1 type  2   force =     0.01348313    0.00000000    0.11478799
     atom    2 type  2   force =    -0.01348313    0.00000000   -0.11478799
     atom    3 type  2   force =    -0.01348313    0.00000000    0.11478799
     atom    4 type  2   force =     0.01348313    0.00000000   -0.11478799
     atom    5 type  1   force =     0.01890338    0.00000000   -0.07704211
     atom    6 type  1   force =    -0.01890338    0.00000000    0.07704211
     atom    7 type  1   force =    -0.01890338    0.00000000   -0.07704211
     atom    8 type  1   force =     0.01890338    0.00000000    0.07704211
     atom    9 type  3   force =    -0.42885852    1.04435667    0.78749200
     atom   10 type  3   force =     0.42885852   -1.04435667   -0.78749200
     atom   11 type  3   force =     0.42885852   -1.04435667    0.78749200
     atom   12 type  3   force =    -0.42885852    1.04435667   -0.78749200
     atom   13 type  3   force =    -0.42885852   -1.04435667   -0.78749200
     atom   14 type  3   force =     0.42885852    1.04435667    0.78749200
     atom   15 type  3   force =     0.42885852    1.04435667   -0.78749200
     atom   16 type  3   force =    -0.42885852   -1.04435667    0.78749200
     atom   17 type  3   force =    -1.32721110    0.00000000   -0.80028182
     atom   18 type  3   force =     1.32721110    0.00000000    0.80028182
     atom   19 type  3   force =     1.32721110    0.00000000   -0.80028182
     atom   20 type  3   force =    -1.32721110    0.00000000    0.80028182
     atom   21 type  3   force =     0.33833626    0.00000000   -1.52199614
     atom   22 type  3   force =    -0.33833626    0.00000000    1.52199614
     atom   23 type  3   force =    -0.33833626    0.00000000   -1.52199614
     atom   24 type  3   force =     0.33833626    0.00000000    1.52199614
     The ionic contribution  to forces
     atom    1 type  2   force =    -2.31732458    0.00000000   -1.50628907
     atom    2 type  2   force =     2.31732458   -0.00000000    1.50628907
     atom    3 type  2   force =     2.31732458   -0.00000000   -1.50628907
     atom    4 type  2   force =    -2.31732458    0.00000000    1.50628907
     atom    5 type  1   force =    -2.97738769   -0.00000000   -0.05559442
     atom    6 type  1   force =     2.97738769   -0.00000000    0.05559442
     atom    7 type  1   force =     2.97738769   -0.00000000   -0.05559442
     atom    8 type  1   force =    -2.97738769   -0.00000000    0.05559442
[...]

     one-electron contribution =    -794.22135262 Ry
     hartree contribution      =     509.33813710 Ry
     xc contribution           =    -278.10951686 Ry
     ewald contribution        =   -1018.61766282 Ry
     one-center paw contrib.   =    -456.64180296 Ry
      -> PAW hartree energy AE =     210.21827773 Ry
      -> PAW hartree energy PS =    -209.42728094 Ry
      -> PAW xc energy AE      =    -111.14507696 Ry
      -> PAW xc energy PS      =      34.27565692 Ry
      -> total E_H with PAW    =     510.12913389 Ry
      -> total E_XC with PAW   =    -354.97893690 Ry
     smearing contrib. (-TS)   =      -0.00059679 Ry

     convergence has been achieved in  14 iterations

     Forces acting on atoms (cartesian axes, Ry/au):

     atom    1 type  2   force =    -0.01735284    0.00000000   -0.06160935
     atom    2 type  2   force =     0.01735284    0.00000000    0.06160935
     atom    3 type  2   force =     0.01735284    0.00000000   -0.06160935
     atom    4 type  2   force =    -0.01735284    0.00000000    0.06160935
     atom    5 type  1   force =     0.00459418    0.00000000   -0.00409732
     atom    6 type  1   force =    -0.00459418   -0.00000000    0.00409732
     atom    7 type  1   force =    -0.00459418   -0.00000000   -0.00409732
     atom    8 type  1   force =     0.00459418    0.00000000    0.00409732
     atom    9 type  3   force =    -0.01884005    0.00362754    0.00000084
     atom   10 type  3   force =     0.01884005   -0.00362754   -0.00000084
     atom   11 type  3   force =     0.01884005   -0.00362754    0.00000084
     atom   12 type  3   force =    -0.01884005    0.00362754   -0.00000084
     atom   13 type  3   force =    -0.01884005   -0.00362754   -0.00000084
     atom   14 type  3   force =     0.01884005    0.00362754    0.00000084
     atom   15 type  3   force =     0.01884005    0.00362754   -0.00000084
     atom   16 type  3   force =    -0.01884005   -0.00362754    0.00000084
     atom   17 type  3   force =    -0.00970018    0.00000000    0.01743975
     atom   18 type  3   force =     0.00970018    0.00000000   -0.01743975
     atom   19 type  3   force =     0.00970018    0.00000000    0.01743975
     atom   20 type  3   force =    -0.00970018    0.00000000   -0.01743975
     atom   21 type  3   force =    -0.01615042    0.00000000   -0.00603968
     atom   22 type  3   force =     0.01615042    0.00000000    0.00603968
     atom   23 type  3   force =     0.01615042    0.00000000   -0.00603968
     atom   24 type  3   force =    -0.01615042    0.00000000    0.00603968
     The non-local contrib.  to forces
     atom    1 type  2   force =     0.05967447    0.00000000    0.10895365
     atom    2 type  2   force =    -0.05967447    0.00000000   -0.10895365
     atom    3 type  2   force =    -0.05967447    0.00000000    0.10895365
     atom    4 type  2   force =     0.05967447    0.00000000   -0.10895365
     atom    5 type  1   force =     0.07621215    0.00000000   -0.11618219
     atom    6 type  1   force =    -0.07621215    0.00000000    0.11618219
     atom    7 type  1   force =    -0.07621215    0.00000000   -0.11618219
     atom    8 type  1   force =     0.07621215    0.00000000    0.11618219
     atom    9 type  3   force =    -0.19558454    1.26264772    0.80768599
     atom   10 type  3   force =     0.19558454   -1.26264772   -0.80768599
     atom   11 type  3   force =     0.19558454   -1.26264772    0.80768599
     atom   12 type  3   force =    -0.19558454    1.26264772   -0.80768599
     atom   13 type  3   force =    -0.19558454   -1.26264772   -0.80768599
     atom   14 type  3   force =     0.19558454    1.26264772    0.80768599
     atom   15 type  3   force =     0.19558454    1.26264772   -0.80768599
     atom   16 type  3   force =    -0.19558454   -1.26264772    0.80768599
     atom   17 type  3   force =    -1.35875155    0.00000000   -1.29664471
     atom   18 type  3   force =     1.35875155    0.00000000    1.29664471
     atom   19 type  3   force =     1.35875155    0.00000000   -1.29664471
     atom   20 type  3   force =    -1.35875155    0.00000000    1.29664471
     atom   21 type  3   force =     0.57307644    0.00000000   -1.71548504
     atom   22 type  3   force =    -0.57307644    0.00000000    1.71548504
     atom   23 type  3   force =    -0.57307644    0.00000000   -1.71548504
     atom   24 type  3   force =     0.57307644    0.00000000    1.71548504
     The ionic contribution  to forces
     atom    1 type  2   force =    -1.82146051   -0.00000000   -3.48005972
     atom    2 type  2   force =     1.82146051    0.00000000    3.48005972
     atom    3 type  2   force =     1.82146051    0.00000000   -3.48005972
     atom    4 type  2   force =    -1.82146051   -0.00000000    3.48005972
     atom    5 type  1   force =    -2.84614764    0.00000000    0.68305948
     atom    6 type  1   force =     2.84614764   -0.00000000   -0.68305948
     atom    7 type  1   force =     2.84614764   -0.00000000    0.68305948
     atom    8 type  1   force =    -2.84614764    0.00000000   -0.68305948
     atom    9 type  3   force =    -6.73018774   -3.61922767   -2.07726109
     atom   10 type  3   force =     6.73018774    3.61922767    2.07726109
     atom   11 type  3   force =     6.73018774    3.61922767   -2.07726109
     atom   12 type  3   force =    -6.73018774   -3.61922767    2.07726109
     atom   13 type  3   force =    -6.73018774    3.61922767    2.07726109
     atom   14 type  3   force =     6.73018774   -3.61922767   -2.07726109
     atom   15 type  3   force =     6.73018774   -3.61922767    2.07726109
     atom   16 type  3   force =    -6.73018774    3.61922767   -2.07726109
     atom   17 type  3   force =    -3.40897601   -0.00000000    8.26048488
     atom   18 type  3   force =     3.40897601    0.00000000   -8.26048488
     atom   19 type  3   force =     3.40897601    0.00000000    8.26048488
     atom   20 type  3   force =    -3.40897601   -0.00000000   -8.26048488
     atom   21 type  3   force =    -8.32973191    0.00000000    1.95189181
     atom   22 type  3   force =     8.32973191   -0.00000000   -1.95189181
     atom   23 type  3   force =     8.32973191   -0.00000000    1.95189181
     atom   24 type  3   force =    -8.32973191    0.00000000   -1.95189181
     The local contribution  to forces
     atom    1 type  2   force =     1.74871467   -0.00000000    3.33738042
     atom    2 type  2   force =    -1.74871467    0.00000000   -3.33738042
     atom    3 type  2   force =    -1.74871467    0.00000000    3.33738042
     atom    4 type  2   force =     1.74871467   -0.00000000   -3.33738042
     atom    5 type  1   force =     2.77971898    0.00000000   -0.57837013
     atom    6 type  1   force =    -2.77971898   -0.00000000    0.57837013
     atom    7 type  1   force =    -2.77971898   -0.00000000   -0.57837013
     atom    8 type  1   force =     2.77971898    0.00000000    0.57837013
     atom    9 type  3   force =     6.90572135    2.37133278    1.27707048
     atom   10 type  3   force =    -6.90572135   -2.37133278   -1.27707048
     atom   11 type  3   force =    -6.90572135   -2.37133278    1.27707048
     atom   12 type  3   force =     6.90572135    2.37133278   -1.27707048
     atom   13 type  3   force =     6.90572135   -2.37133278   -1.27707048
     atom   14 type  3   force =    -6.90572135    2.37133278    1.27707048
     atom   15 type  3   force =    -6.90572135    2.37133278   -1.27707048
     atom   16 type  3   force =     6.90572135   -2.37133278    1.27707048
     atom   17 type  3   force =     4.74642660   -0.00000000   -6.95853758
     atom   18 type  3   force =    -4.74642660    0.00000000    6.95853758
     atom   19 type  3   force =    -4.74642660    0.00000000   -6.95853758
     atom   20 type  3   force =     4.74642660   -0.00000000    6.95853758
     atom   21 type  3   force =     7.74671494    0.00000000   -0.25729560
     atom   22 type  3   force =    -7.74671494   -0.00000000    0.25729560
     atom   23 type  3   force =    -7.74671494   -0.00000000   -0.25729560
     atom   24 type  3   force =     7.74671494    0.00000000    0.25729560
     The core correction contribution to forces
     atom    1 type  2   force =    -0.00428284    0.00000000   -0.02787711
     atom    2 type  2   force =     0.00428284   -0.00000000    0.02787711
     atom    3 type  2   force =     0.00428284   -0.00000000   -0.02787711
     atom    4 type  2   force =    -0.00428284    0.00000000    0.02787711
     atom    5 type  1   force =    -0.00519005   -0.00000000    0.00739465
     atom    6 type  1   force =     0.00519005    0.00000000   -0.00739465
     atom    7 type  1   force =     0.00519005    0.00000000    0.00739465
     atom    8 type  1   force =    -0.00519005   -0.00000000   -0.00739465
     atom    9 type  3   force =     0.00120359   -0.01111260   -0.00748788
     atom   10 type  3   force =    -0.00120359    0.01111260    0.00748788
     atom   11 type  3   force =    -0.00120359    0.01111260   -0.00748788
     atom   12 type  3   force =     0.00120359   -0.01111260    0.00748788
     atom   13 type  3   force =     0.00120359    0.01111260    0.00748788
     atom   14 type  3   force =    -0.00120359   -0.01111260   -0.00748788
     atom   15 type  3   force =    -0.00120359   -0.01111260    0.00748788
     atom   16 type  3   force =     0.00120359    0.01111260   -0.00748788
     atom   17 type  3   force =     0.01159441   -0.00000000    0.01213674
     atom   18 type  3   force =    -0.01159441    0.00000000   -0.01213674
     atom   19 type  3   force =    -0.01159441    0.00000000    0.01213674
     atom   20 type  3   force =     0.01159441   -0.00000000   -0.01213674
     atom   21 type  3   force =    -0.00621483    0.00000000    0.01484458
     atom   22 type  3   force =     0.00621483   -0.00000000   -0.01484458
     atom   23 type  3   force =     0.00621483   -0.00000000    0.01484458
     atom   24 type  3   force =    -0.00621483    0.00000000   -0.01484458
     The Hubbard contrib.    to forces
     atom    1 type  2   force =     0.00000000    0.00000000    0.00000000
     atom    2 type  2   force =     0.00000000    0.00000000    0.00000000
     atom    3 type  2   force =     0.00000000    0.00000000    0.00000000
     atom    4 type  2   force =     0.00000000    0.00000000    0.00000000
     atom    5 type  1   force =     0.00000000    0.00000000    0.00000000
     atom    6 type  1   force =     0.00000000    0.00000000    0.00000000
     atom    7 type  1   force =     0.00000000    0.00000000    0.00000000
     atom    8 type  1   force =     0.00000000    0.00000000    0.00000000
     atom    9 type  3   force =     0.00000000    0.00000000    0.00000000
     atom   10 type  3   force =     0.00000000    0.00000000    0.00000000
     atom   11 type  3   force =     0.00000000    0.00000000    0.00000000
     atom   12 type  3   force =     0.00000000    0.00000000    0.00000000
     atom   13 type  3   force =     0.00000000    0.00000000    0.00000000
     atom   14 type  3   force =     0.00000000    0.00000000    0.00000000
     atom   15 type  3   force =     0.00000000    0.00000000    0.00000000
     atom   16 type  3   force =     0.00000000    0.00000000    0.00000000
     atom   17 type  3   force =     0.00000000    0.00000000    0.00000000
     atom   18 type  3   force =     0.00000000    0.00000000    0.00000000
     atom   19 type  3   force =     0.00000000    0.00000000    0.00000000
     atom   20 type  3   force =     0.00000000    0.00000000    0.00000000
     atom   21 type  3   force =     0.00000000    0.00000000    0.00000000
     atom   22 type  3   force =     0.00000000    0.00000000    0.00000000
     atom   23 type  3   force =     0.00000000    0.00000000    0.00000000
     atom   24 type  3   force =     0.00000000    0.00000000    0.00000000
     The SCF correction term to forces
     atom    1 type  2   force =     0.00000137   -0.00000000   -0.00000659
     atom    2 type  2   force =    -0.00000137   -0.00000000    0.00000659
     atom    3 type  2   force =    -0.00000137   -0.00000000   -0.00000659
     atom    4 type  2   force =     0.00000137    0.00000000    0.00000659
     atom    5 type  1   force =     0.00000074   -0.00000000    0.00000087
     atom    6 type  1   force =    -0.00000074   -0.00000000   -0.00000087
     atom    7 type  1   force =    -0.00000074    0.00000000    0.00000087
     atom    8 type  1   force =     0.00000074    0.00000000   -0.00000087
     atom    9 type  3   force =     0.00000729   -0.00001268   -0.00000665
     atom   10 type  3   force =    -0.00000729    0.00001268    0.00000665
     atom   11 type  3   force =    -0.00000729    0.00001268   -0.00000665
     atom   12 type  3   force =     0.00000729   -0.00001268    0.00000665
     atom   13 type  3   force =     0.00000729    0.00001268    0.00000665
     atom   14 type  3   force =    -0.00000729   -0.00001268   -0.00000665
     atom   15 type  3   force =    -0.00000729   -0.00001268    0.00000665
     atom   16 type  3   force =     0.00000729    0.00001268   -0.00000665
     atom   17 type  3   force =     0.00000637   -0.00000000    0.00000042
     atom   18 type  3   force =    -0.00000637   -0.00000000   -0.00000042
     atom   19 type  3   force =    -0.00000637    0.00000000    0.00000042
     atom   20 type  3   force =     0.00000637   -0.00000000   -0.00000042
     atom   21 type  3   force =     0.00000493   -0.00000000    0.00000456
     atom   22 type  3   force =    -0.00000493    0.00000000   -0.00000456
     atom   23 type  3   force =    -0.00000493    0.00000000    0.00000456
     atom   24 type  3   force =     0.00000493   -0.00000000   -0.00000456

     Total force =     0.149218     Total SCF correction =     0.000051


     Computing stress (Cartesian axis) and pressure

          total   stress  (Ry/bohr**3)                   (kbar)     P= -313.44
  -0.00187829   0.00000000   0.00000000       -276.31      0.00      0.00
   0.00000000  -0.00226962   0.00000000          0.00   -333.87      0.00
   0.00000000   0.00000000  -0.00224425          0.00      0.00   -330.14

     kinetic stress (kbar)  34255.31      0.00      0.00
                                0.00  34579.45      0.00
                                0.00      0.00  34187.07

     local   stress (kbar)   3317.72      0.00     -0.00
                                0.00  -5810.21      0.00
                               -0.00      0.00  -6632.42

     nonloc. stress (kbar)  -5743.96      0.00      0.00
                                0.00  -5817.58      0.00
                                0.00      0.00  -5750.97

     hartree stress (kbar)  14006.27     -0.00      0.00
                               -0.00  19484.13     -0.00
                                0.00     -0.00  18987.57

     exc-cor stress (kbar)  -3809.49     -0.00      0.00
                               -0.00  -3819.39      0.00
                                0.00      0.00  -3806.80

     corecor stress (kbar)  -4532.72      0.00      0.00
                                0.00  -4530.29      0.00
                                0.00      0.00  -4554.11

     ewald   stress (kbar) -37769.44     -0.00      0.00
                               -0.00 -34419.99      0.00
                                0.00      0.00 -32760.49

     hubbard stress (kbar)      0.00      0.00      0.00
                                0.00      0.00      0.00
                                0.00      0.00      0.00

     london  stress (kbar)      0.00      0.00      0.00
                                0.00      0.00      0.00
                                0.00      0.00      0.00

     DFT-D3  stress (kbar)      0.00      0.00      0.00
                                0.00      0.00      0.00
                                0.00      0.00      0.00

     XDM     stress (kbar)      0.00      0.00      0.00
                                0.00      0.00      0.00
                                0.00      0.00      0.00

     dft-nl  stress (kbar)      0.00      0.00      0.00
                                0.00      0.00      0.00
                                0.00      0.00      0.00

     TS-vdW  stress (kbar)      0.00      0.00      0.00
                                0.00      0.00      0.00
                                0.00      0.00      0.00



     Writing output data file VLAB.save/
 
     init_run     :      1.68s CPU      4.24s WALL (       2 calls)
     electrons    :    727.11s CPU    789.85s WALL (      24 calls)
     update_pot   :      4.12s CPU      4.23s WALL (      22 calls)
     forces       :      8.51s CPU      8.66s WALL (      24 calls)
     stress       :     19.41s CPU     19.64s WALL (      24 calls)

     Called by init_run:
     wfcinit      :      1.24s CPU      1.87s WALL (       2 calls)
     wfcinit:wfcr :      1.21s CPU      1.84s WALL (      48 calls)
     potinit      :      0.17s CPU      0.34s WALL (       2 calls)
     hinit0       :      0.21s CPU      1.66s WALL (       2 calls)

     Called by electrons:
     c_bands      :    650.56s CPU    709.26s WALL (     277 calls)
     sum_band     :     54.84s CPU     58.40s WALL (     277 calls)
     v_of_rho     :      0.74s CPU      0.77s WALL (     295 calls)
     v_h          :      0.05s CPU      0.05s WALL (     295 calls)
     v_xc         :      0.80s CPU      0.83s WALL (     343 calls)
     newd         :      3.15s CPU      3.40s WALL (     295 calls)
     PAW_pot      :     20.54s CPU     21.05s WALL (     317 calls)
     mix_rho      :      0.24s CPU      0.25s WALL (     277 calls)

     Called by c_bands:
     init_us_2    :      2.72s CPU      2.86s WALL (   15024 calls)
     cegterg      :    638.99s CPU    697.18s WALL (    6648 calls)

     Called by sum_band:
     sum_band:bec :      1.12s CPU      1.19s WALL (    7176 calls)
     addusdens    :      3.56s CPU      3.64s WALL (     277 calls)

     Called by *egterg:
     h_psi        :    243.80s CPU    261.15s WALL (   25605 calls)
     s_psi        :     12.94s CPU     13.44s WALL (   25605 calls)
     g_psi        :      0.39s CPU      0.41s WALL (   18909 calls)
     cdiaghg      :    333.25s CPU    371.74s WALL (   24885 calls)
     cegterg:over :     22.25s CPU     23.39s WALL (   18909 calls)
     cegterg:upda :     11.48s CPU     11.96s WALL (   18909 calls)
     cegterg:last :      6.60s CPU      7.10s WALL (    7071 calls)
     cdiaghg:chol :     36.34s CPU     41.21s WALL (   24885 calls)
     cdiaghg:inve :     16.42s CPU     18.42s WALL (   24885 calls)
     cdiaghg:para :     24.01s CPU     26.46s WALL (   49770 calls)

     Called by h_psi:
     h_psi:pot    :    243.01s CPU    260.33s WALL (   25605 calls)
     h_psi:calbec :     21.13s CPU     22.74s WALL (   25605 calls)
     vloc_psi     :    206.19s CPU    221.09s WALL (   25605 calls)
     add_vuspsi   :     15.51s CPU     16.35s WALL (   25605 calls)

     General routines
     calbec       :     32.29s CPU     34.55s WALL (   35661 calls)
     fft          :      1.04s CPU      2.04s WALL (    4415 calls)
     ffts         :      0.08s CPU      0.08s WALL (     572 calls)
     fftw         :    233.15s CPU    249.82s WALL ( 4374880 calls)
     interpolate  :      0.11s CPU      0.11s WALL (     295 calls)
 
     Parallel routines
     fft_scatt_xy :     15.77s CPU     16.92s WALL ( 4379867 calls)
     fft_scatt_yz :    161.02s CPU    172.78s WALL ( 4379867 calls)

     PAW routines
     PAW_pot      :     20.54s CPU     21.05s WALL (     317 calls)
     PAW_symme    :      0.10s CPU      0.11s WALL (     594 calls)
 
     PWSCF        :  12m45.27s CPU  13m53.46s WALL

 
   This run was terminated on:   7:56:10  16Apr2020            

=------------------------------------------------------------------------------=
   JOB DONE.
=------------------------------------------------------------------------------=
