
     Program PWSCF v.6.4.1 starts on 16Apr2020 at  7:31:38 

     This program is part of the open-source Quantum ESPRESSO suite
     for quantum simulation of materials; please cite
         "P. Giannozzi et al., J. Phys.:Condens. Matter 21 395502 (2009);
         "P. Giannozzi et al., J. Phys.:Condens. Matter 29 465901 (2017);
          URL http://www.quantum-espresso.org", 
     in publications or presentations arising from this work. More details at
     http://www.quantum-espresso.org/quote

     Parallel version (MPI), running on    48 processors

     MPI processes distributed on     1 nodes
     R & G space division:  proc/nbgrp/npool/nimage =      48
     Waiting for input...
     Reading input from standard input

     Current dimensions of program PWSCF are:
     Max number of different atomic species (ntypx) = 10
     Max number of k-points (npk) =  40000
     Max angular momentum in pseudopotentials (lmaxx) =  3

     Subspace diagonalization in iterative solution of the eigenvalue problem:
     one sub-group per band group will be used
     scalapack distributed-memory algorithm (size of sub-group:  4*  4 procs)

     Found symmetry operation: I + ( -0.5000 -0.5000 -0.5000)
     This is a supercell, fractional translations are disabled
     Message from routine setup:
     DEPRECATED: symmetry with ibrav=0, use correct ibrav instead
 
     Parallelization info
     --------------------
     sticks:   dense  smooth     PW     G-vecs:    dense   smooth      PW
     Min           8       8      2                  124      124      14
     Max           9       9      3                  129      129      17
     Sum         401     401     97                 6031     6031     739
 


     bravais-lattice index     =            0
     lattice parameter (alat)  =       6.4757  a.u.
     unit-cell volume          =     271.5623 (a.u.)^3
     number of atoms/cell      =            2
     number of atomic types    =            1
     number of electrons       =         6.00
     number of Kohn-Sham states=            7
     kinetic-energy cutoff     =      30.0000  Ry
     charge density cutoff     =     120.0000  Ry
     convergence threshold     =      1.0E-06
     mixing beta               =       0.5000
     number of iterations used =            8  plain     mixing
     Exchange-correlation      =  SLA  PW   PBX  PBC ( 1  4  3  4 0 0)
     nstep                     =          100


     celldm(1)=   6.475746  celldm(2)=   0.000000  celldm(3)=   0.000000
     celldm(4)=   0.000000  celldm(5)=   0.000000  celldm(6)=   0.000000

     crystal axes: (cart. coord. in units of alat)
               a(1) = (   1.000000   0.000000   0.000000 )  
               a(2) = (   0.000000   1.000000   0.000000 )  
               a(3) = (   0.000000   0.000000   1.000000 )  

     reciprocal axes: (cart. coord. in units 2 pi/alat)
               b(1) = (  1.000000  0.000000  0.000000 )  
               b(2) = (  0.000000  1.000000  0.000000 )  
               b(3) = (  0.000000  0.000000  1.000000 )  


     PseudoPot. # 1 for Li read from file:
     ./li_pbe_v1.4.uspp.F.UPF
     MD5 check sum: e912e257baa3777c20ea3d68f190483c
     Pseudo is Ultrasoft, Zval =  3.0
     Generated by new atomic code, or converted to UPF format
     Using radial grid of  751 points,  5 beta functions with: 
                l(1) =   0
                l(2) =   0
                l(3) =   0
                l(4) =   1
                l(5) =   1
     Q(r) pseudized with 10 coefficients,  rinner =    1.150   1.150   1.150


     atomic species   valence    mass     pseudopotential
        Li             3.00     6.94100     Li( 1.00)

     48 Sym. Ops., with inversion, found



   Cartesian axes

     site n.     atom                  positions (alat units)
         1           Li  tau(   1) = (   0.0000000   0.0000000   0.0000000  )
         2           Li  tau(   2) = (   0.5000000   0.5000000   0.5000000  )

     number of k points=     1  gaussian smearing, width (Ry)=  0.0020
                       cart. coord. in units 2pi/alat
        k(    1) = (   0.0000000   0.0000000   0.0000000), wk =   2.0000000

     Dense  grid:     6031 G-vectors     FFT dimensions: (  24,  24,  24)

     Estimated max dynamical RAM per process >       0.99 MB

     Estimated total dynamical RAM >      47.66 MB
     Message from routine sym_rho_init:
     some processors have no G-vectors for symmetrization
     Message from routine sym_rho_init:
     some processors have no G-vectors for symmetrization
     Message from routine sym_rho_init:
     some processors have no G-vectors for symmetrization
     Message from routine sym_rho_init:
     some processors have no G-vectors for symmetrization
     Message from routine sym_rho_init:
     some processors have no G-vectors for symmetrization
     Message from routine sym_rho_init:
     some processors have no G-vectors for symmetrization
     Message from routine sym_rho_init:
     some processors have no G-vectors for symmetrization
     Message from routine sym_rho_init:
     some processors have no G-vectors for symmetrization
     Message from routine sym_rho_init:
     some processors have no G-vectors for symmetrization
     Message from routine sym_rho_init:
     some processors have no G-vectors for symmetrization
     Message from routine sym_rho_init:
     some processors have no G-vectors for symmetrization
     Message from routine sym_rho_init:
     some processors have no G-vectors for symmetrization
     Message from routine sym_rho_init:
     some processors have no G-vectors for symmetrization
     Message from routine sym_rho_init:
     some processors have no G-vectors for symmetrization

     Initial potential from superposition of free atoms

     starting charge    5.09851, renormalised to    6.00000
     Starting wfcs are   10 randomized atomic wfcs

     total cpu time spent up to now is        5.3 secs

     Self-consistent Calculation

     iteration #  1     ecut=    30.00 Ry     beta= 0.50
     Davidson diagonalization with overlap
     ethr =  1.00E-02,  avg # of iterations =  2.0

     total cpu time spent up to now is        5.6 secs

     total energy              =     -29.29404155 Ry
     Harris-Foulkes estimate   =     -29.48231092 Ry
     estimated scf accuracy    <       0.31751865 Ry

     iteration #  2     ecut=    30.00 Ry     beta= 0.50
     Davidson diagonalization with overlap
     ethr =  5.29E-03,  avg # of iterations =  1.0

     total cpu time spent up to now is        5.6 secs

     total energy              =     -29.25844782 Ry
     Harris-Foulkes estimate   =     -29.30574129 Ry
     estimated scf accuracy    <       0.06106971 Ry

     iteration #  3     ecut=    30.00 Ry     beta= 0.50
     Davidson diagonalization with overlap
     ethr =  1.02E-03,  avg # of iterations =  1.0

     total cpu time spent up to now is        5.6 secs

     total energy              =     -29.26375571 Ry
     Harris-Foulkes estimate   =     -29.26376840 Ry
     estimated scf accuracy    <       0.00024146 Ry

     iteration #  4     ecut=    30.00 Ry     beta= 0.50
     Davidson diagonalization with overlap
     ethr =  4.02E-06,  avg # of iterations =  8.0

     total cpu time spent up to now is        5.6 secs

     total energy              =     -29.26447093 Ry
     Harris-Foulkes estimate   =     -29.26446672 Ry
     estimated scf accuracy    <       0.00000602 Ry

     iteration #  5     ecut=    30.00 Ry     beta= 0.50
     Davidson diagonalization with overlap
     ethr =  1.00E-07,  avg # of iterations =  1.0

     total cpu time spent up to now is        5.6 secs

     End of self-consistent calculation

          k = 0.0000 0.0000 0.0000 (   739 PWs)   bands (ev):

   -45.4748 -45.4404  -2.6299   6.4996   6.4996   6.4996   8.7583

     the Fermi energy is     2.0200 ev

!    total energy              =     -29.26447193 Ry
     Harris-Foulkes estimate   =     -29.26447142 Ry
     estimated scf accuracy    <       0.00000033 Ry

     The total energy is the sum of the following terms:

     one-electron contribution =     -19.70070695 Ry
     hartree contribution      =       7.33427579 Ry
     xc contribution           =      -6.78241822 Ry
     ewald contribution        =     -10.11562255 Ry
     smearing contrib. (-TS)   =      -0.00000000 Ry

     convergence has been achieved in   5 iterations

     Forces acting on atoms (cartesian axes, Ry/au):

     atom    1 type  1   force =     0.00000000    0.00000000    0.00000000
     atom    2 type  1   force =     0.00000000    0.00000000   -0.00000000

     Total force =     0.000000     Total SCF correction =     0.000000


     Computing stress (Cartesian axis) and pressure

          total   stress  (Ry/bohr**3)                   (kbar)     P=  -76.91
  -0.00052283   0.00000000   0.00000000        -76.91      0.00      0.00
   0.00000000  -0.00052283   0.00000000          0.00    -76.91      0.00
   0.00000000   0.00000000  -0.00052283          0.00      0.00    -76.91


     BFGS Geometry Optimization

     number of scf cycles    =   1
     number of bfgs steps    =   0

     enthalpy new            =     -29.2644719334 Ry

     new trust radius        =       0.0430787467 bohr
     new conv_thr            =       0.0000010000 Ry

     new unit-cell volume =    261.05232 a.u.^3 (    38.68396 Ang^3 )
     density =      0.59590 g/cm^3

CELL_PARAMETERS (angstrom)
   3.382026341   0.000000000   0.000000000
   0.000000000   3.382026341   0.000000000
   0.000000000   0.000000000   3.382026341

ATOMIC_POSITIONS (angstrom)
Li       0.000000000   0.000000000   0.000000000
Li       1.691013170   1.691013170   1.691013170



     Writing output data file VLAB.save/
     Message from routine punch:
     wavefunctions written to file
     NEW-OLD atomic charge density approx. for the potential
     extrapolated charge    5.79473, renormalised to    6.00000

     total cpu time spent up to now is        5.6 secs

     Self-consistent Calculation

     iteration #  1     ecut=    30.00 Ry     beta= 0.50
     Davidson diagonalization with overlap
     ethr =  1.00E-06,  avg # of iterations =  3.0

     total cpu time spent up to now is        5.6 secs

     total energy              =     -29.26829466 Ry
     Harris-Foulkes estimate   =     -29.46139537 Ry
     estimated scf accuracy    <       0.00122650 Ry

     iteration #  2     ecut=    30.00 Ry     beta= 0.50
     Davidson diagonalization with overlap
     ethr =  2.04E-05,  avg # of iterations =  3.0

     total cpu time spent up to now is        5.6 secs

     total energy              =     -29.26963069 Ry
     Harris-Foulkes estimate   =     -29.26963352 Ry
     estimated scf accuracy    <       0.00001426 Ry

     iteration #  3     ecut=    30.00 Ry     beta= 0.50
     Davidson diagonalization with overlap
     ethr =  2.38E-07,  avg # of iterations =  1.0

     total cpu time spent up to now is        5.6 secs

     total energy              =     -29.26963063 Ry
     Harris-Foulkes estimate   =     -29.26963097 Ry
     estimated scf accuracy    <       0.00000288 Ry

     iteration #  4     ecut=    30.00 Ry     beta= 0.50
     Davidson diagonalization with overlap
     ethr =  4.80E-08,  avg # of iterations =  2.0

     total cpu time spent up to now is        5.7 secs

     End of self-consistent calculation

          k = 0.0000 0.0000 0.0000 (   739 PWs)   bands (ev):

   -45.2781 -45.2383  -2.5577   6.7678   6.7678   6.7678   9.0610

     the Fermi energy is     2.3094 ev

!    total energy              =     -29.26963088 Ry
     Harris-Foulkes estimate   =     -29.26963089 Ry
     estimated scf accuracy    <       0.00000004 Ry

     The total energy is the sum of the following terms:

     one-electron contribution =     -19.50409756 Ry
     hartree contribution      =       7.28031958 Ry
     xc contribution           =      -6.79626117 Ry
     ewald contribution        =     -10.24959173 Ry
     smearing contrib. (-TS)   =      -0.00000000 Ry

     convergence has been achieved in   4 iterations

     Forces acting on atoms (cartesian axes, Ry/au):

     atom    1 type  1   force =     0.00000000    0.00000000    0.00000000
     atom    2 type  1   force =     0.00000000    0.00000000    0.00000000

     Total force =     0.000000     Total SCF correction =     0.000000


     Computing stress (Cartesian axis) and pressure

          total   stress  (Ry/bohr**3)                   (kbar)     P=  -69.31
  -0.00047114   0.00000000   0.00000000        -69.31      0.00      0.00
   0.00000000  -0.00047114   0.00000000          0.00    -69.31      0.00
   0.00000000   0.00000000  -0.00047114          0.00      0.00    -69.31


     number of scf cycles    =   2
     number of bfgs steps    =   1

     enthalpy old            =     -29.2644719334 Ry
     enthalpy new            =     -29.2696308751 Ry

     CASE: enthalpy_new < enthalpy_old


     WARNING: bfgs curvature condition failed, Theta= 0.911
     new trust radius        =       0.0641944295 bohr
     new conv_thr            =       0.0000001000 Ry

     new unit-cell volume =    245.80140 a.u.^3 (    36.42401 Ang^3 )
     density =      0.63287 g/cm^3

CELL_PARAMETERS (angstrom)
   3.314840067   0.000000000   0.000000000
   0.000000000   3.314840067   0.000000000
   0.000000000   0.000000000   3.314840067

ATOMIC_POSITIONS (angstrom)
Li       0.000000000   0.000000000   0.000000000
Li       1.657420033   1.657420033   1.657420033



     Writing output data file VLAB.save/
     Message from routine punch:
     wavefunctions written to file
     NEW-OLD atomic charge density approx. for the potential
     extrapolated charge    5.68366, renormalised to    6.00000

     total cpu time spent up to now is        5.8 secs

     Self-consistent Calculation

     iteration #  1     ecut=    30.00 Ry     beta= 0.50
     Davidson diagonalization with overlap
     ethr =  1.00E-06,  avg # of iterations =  3.0

     total cpu time spent up to now is        5.8 secs

     total energy              =     -29.27308750 Ry
     Harris-Foulkes estimate   =     -29.55553347 Ry
     estimated scf accuracy    <       0.00302585 Ry

     iteration #  2     ecut=    30.00 Ry     beta= 0.50
     Davidson diagonalization with overlap
     ethr =  5.04E-05,  avg # of iterations =  3.0

     total cpu time spent up to now is        5.8 secs

     total energy              =     -29.27616321 Ry
     Harris-Foulkes estimate   =     -29.27617490 Ry
     estimated scf accuracy    <       0.00003944 Ry

     iteration #  3     ecut=    30.00 Ry     beta= 0.50
     Davidson diagonalization with overlap
     ethr =  6.57E-07,  avg # of iterations =  1.0

     total cpu time spent up to now is        5.8 secs

     total energy              =     -29.27616242 Ry
     Harris-Foulkes estimate   =     -29.27616411 Ry
     estimated scf accuracy    <       0.00000734 Ry

     iteration #  4     ecut=    30.00 Ry     beta= 0.50
     Davidson diagonalization with overlap
     ethr =  1.22E-07,  avg # of iterations =  2.0

     total cpu time spent up to now is        5.8 secs

     total energy              =     -29.27616326 Ry
     Harris-Foulkes estimate   =     -29.27616334 Ry
     estimated scf accuracy    <       0.00000013 Ry

     iteration #  5     ecut=    30.00 Ry     beta= 0.50
     Davidson diagonalization with overlap
     ethr =  2.22E-09,  avg # of iterations =  1.0

     total cpu time spent up to now is        5.8 secs

     End of self-consistent calculation

          k = 0.0000 0.0000 0.0000 (   739 PWs)   bands (ev):

   -44.9683 -44.9187  -2.4340   7.1963   7.1963   7.1963   9.5403

     the Fermi energy is     2.7675 ev

!    total energy              =     -29.27616327 Ry
     Harris-Foulkes estimate   =     -29.27616327 Ry
     estimated scf accuracy    <          2.0E-09 Ry

     The total energy is the sum of the following terms:

     one-electron contribution =     -19.19810964 Ry
     hartree contribution      =       7.19703391 Ry
     xc contribution           =      -6.81775371 Ry
     ewald contribution        =     -10.45733383 Ry
     smearing contrib. (-TS)   =      -0.00000000 Ry

     convergence has been achieved in   5 iterations

     Forces acting on atoms (cartesian axes, Ry/au):

     atom    1 type  1   force =     0.00000000    0.00000000    0.00000000
     atom    2 type  1   force =     0.00000000    0.00000000    0.00000000

     Total force =     0.000000     Total SCF correction =     0.000000


     Computing stress (Cartesian axis) and pressure

          total   stress  (Ry/bohr**3)                   (kbar)     P=  -57.05
  -0.00038784   0.00000000   0.00000000        -57.05      0.00      0.00
   0.00000000  -0.00038784   0.00000000          0.00    -57.05      0.00
   0.00000000   0.00000000  -0.00038784          0.00      0.00    -57.05


     number of scf cycles    =   3
     number of bfgs steps    =   2

     enthalpy old            =     -29.2696308751 Ry
     enthalpy new            =     -29.2761632731 Ry

     CASE: enthalpy_new < enthalpy_old

     new trust radius        =       0.0953303965 bohr
     new conv_thr            =       0.0000001000 Ry

     new unit-cell volume =    224.05715 a.u.^3 (    33.20184 Ang^3 )
     density =      0.69429 g/cm^3

CELL_PARAMETERS (angstrom)
   3.214060656   0.000000000   0.000000000
   0.000000000   3.214060656   0.000000000
   0.000000000   0.000000000   3.214060656

ATOMIC_POSITIONS (angstrom)
Li       0.000000000   0.000000000   0.000000000
Li       1.607030328   1.607030328   1.607030328



     Writing output data file VLAB.save/
     Message from routine punch:
     wavefunctions written to file
     NEW-OLD atomic charge density approx. for the potential
     extrapolated charge    5.50520, renormalised to    6.00000

     total cpu time spent up to now is        5.9 secs

     Self-consistent Calculation

     iteration #  1     ecut=    30.00 Ry     beta= 0.50
     Davidson diagonalization with overlap
     ethr =  1.00E-06,  avg # of iterations =  3.0

     total cpu time spent up to now is        5.9 secs

     total energy              =     -29.27590704 Ry
     Harris-Foulkes estimate   =     -29.68069985 Ry
     estimated scf accuracy    <       0.00792284 Ry

     iteration #  2     ecut=    30.00 Ry     beta= 0.50
     Davidson diagonalization with overlap
     ethr =  1.32E-04,  avg # of iterations =  3.0

     total cpu time spent up to now is        5.9 secs

     total energy              =     -29.28304288 Ry
     Harris-Foulkes estimate   =     -29.28310050 Ry
     estimated scf accuracy    <       0.00013218 Ry

     iteration #  3     ecut=    30.00 Ry     beta= 0.50
     Davidson diagonalization with overlap
     ethr =  2.20E-06,  avg # of iterations =  1.0

     total cpu time spent up to now is        5.9 secs

     total energy              =     -29.28303780 Ry
     Harris-Foulkes estimate   =     -29.28304649 Ry
     estimated scf accuracy    <       0.00002134 Ry

     iteration #  4     ecut=    30.00 Ry     beta= 0.50
     Davidson diagonalization with overlap
     ethr =  3.56E-07,  avg # of iterations =  2.0

     total cpu time spent up to now is        5.9 secs

     total energy              =     -29.28304098 Ry
     Harris-Foulkes estimate   =     -29.28304135 Ry
     estimated scf accuracy    <       0.00000059 Ry

     iteration #  5     ecut=    30.00 Ry     beta= 0.50
     Davidson diagonalization with overlap
     ethr =  9.91E-09,  avg # of iterations =  2.0

     total cpu time spent up to now is        5.9 secs

     End of self-consistent calculation

          k = 0.0000 0.0000 0.0000 (   739 PWs)   bands (ev):

   -44.4715 -44.4020  -2.2137   7.8956   7.8956   7.8956  10.3211

     the Fermi energy is     3.5129 ev

!    total energy              =     -29.28304100 Ry
     Harris-Foulkes estimate   =     -29.28304102 Ry
     estimated scf accuracy    <       0.00000004 Ry

     The total energy is the sum of the following terms:

     one-electron contribution =     -18.71294436 Ry
     hartree contribution      =       7.06705037 Ry
     xc contribution           =      -6.85191522 Ry
     ewald contribution        =     -10.78523179 Ry
     smearing contrib. (-TS)   =      -0.00000000 Ry

     convergence has been achieved in   5 iterations

     Forces acting on atoms (cartesian axes, Ry/au):

     atom    1 type  1   force =     0.00000000    0.00000000    0.00000000
     atom    2 type  1   force =     0.00000000    0.00000000    0.00000000

     Total force =     0.000000     Total SCF correction =     0.000000


     Computing stress (Cartesian axis) and pressure

          total   stress  (Ry/bohr**3)                   (kbar)     P=  -35.37
  -0.00024045   0.00000000   0.00000000        -35.37      0.00      0.00
   0.00000000  -0.00024045   0.00000000          0.00    -35.37      0.00
   0.00000000   0.00000000  -0.00024045          0.00      0.00    -35.37


     number of scf cycles    =   4
     number of bfgs steps    =   3

     enthalpy old            =     -29.2761632731 Ry
     enthalpy new            =     -29.2830410034 Ry

     CASE: enthalpy_new < enthalpy_old

     new trust radius        =       0.1311527755 bohr
     new conv_thr            =       0.0000001000 Ry

     new unit-cell volume =    195.88091 a.u.^3 (    29.02656 Ang^3 )
     density =      0.79416 g/cm^3

CELL_PARAMETERS (angstrom)
   3.073254333   0.000000000   0.000000000
   0.000000000   3.073254333   0.000000000
   0.000000000   0.000000000   3.073254333

ATOMIC_POSITIONS (angstrom)
Li       0.000000000   0.000000000   0.000000000
Li       1.536627167   1.536627167   1.536627167



     Writing output data file VLAB.save/
     Message from routine punch:
     wavefunctions written to file
     NEW-OLD atomic charge density approx. for the potential
     extrapolated charge    5.26661, renormalised to    6.00000

     total cpu time spent up to now is        5.9 secs

     Self-consistent Calculation

     iteration #  1     ecut=    30.00 Ry     beta= 0.50
     Davidson diagonalization with overlap
     ethr =  1.00E-06,  avg # of iterations =  4.0

     total cpu time spent up to now is        5.9 secs

     total energy              =     -29.27128153 Ry
     Harris-Foulkes estimate   =     -29.79405743 Ry
     estimated scf accuracy    <       0.01913349 Ry

     iteration #  2     ecut=    30.00 Ry     beta= 0.50
     Davidson diagonalization with overlap
     ethr =  3.19E-04,  avg # of iterations =  3.0

     total cpu time spent up to now is        5.9 secs

     total energy              =     -29.28570001 Ry
     Harris-Foulkes estimate   =     -29.28595650 Ry
     estimated scf accuracy    <       0.00046445 Ry

     iteration #  3     ecut=    30.00 Ry     beta= 0.50
     Davidson diagonalization with overlap
     ethr =  7.74E-06,  avg # of iterations =  1.0

     total cpu time spent up to now is        5.9 secs

     total energy              =     -29.28567898 Ry
     Harris-Foulkes estimate   =     -29.28571427 Ry
     estimated scf accuracy    <       0.00006212 Ry

     iteration #  4     ecut=    30.00 Ry     beta= 0.50
     Davidson diagonalization with overlap
     ethr =  1.04E-06,  avg # of iterations =  2.0

     total cpu time spent up to now is        5.9 secs

     total energy              =     -29.28569067 Ry
     Harris-Foulkes estimate   =     -29.28569208 Ry
     estimated scf accuracy    <       0.00000252 Ry

     iteration #  5     ecut=    30.00 Ry     beta= 0.50
     Davidson diagonalization with overlap
     ethr =  4.21E-08,  avg # of iterations =  1.0

     total cpu time spent up to now is        5.9 secs

     total energy              =     -29.28569045 Ry
     Harris-Foulkes estimate   =     -29.28569072 Ry
     estimated scf accuracy    <       0.00000048 Ry

     iteration #  6     ecut=    30.00 Ry     beta= 0.50
     Davidson diagonalization with overlap
     ethr =  7.96E-09,  avg # of iterations =  3.0

     total cpu time spent up to now is        5.9 secs

     total energy              =     -29.28569049 Ry
     Harris-Foulkes estimate   =     -29.28569055 Ry
     estimated scf accuracy    <       0.00000012 Ry

     iteration #  7     ecut=    30.00 Ry     beta= 0.50
     Davidson diagonalization with overlap
     ethr =  1.97E-09,  avg # of iterations =  1.0

     total cpu time spent up to now is        6.0 secs

     End of self-consistent calculation

          k = 0.0000 0.0000 0.0000 (   739 PWs)   bands (ev):

   -43.7253 -43.6134  -1.8216   9.0015   9.0015   9.0015  11.5533

     the Fermi energy is     4.6843 ev

!    total energy              =     -29.28569048 Ry
     Harris-Foulkes estimate   =     -29.28569049 Ry
     estimated scf accuracy    <       0.00000002 Ry

     The total energy is the sum of the following terms:

     one-electron contribution =     -17.97778653 Ry
     hartree contribution      =       6.87638478 Ry
     xc contribution           =      -6.90491337 Ry
     ewald contribution        =     -11.27937535 Ry
     smearing contrib. (-TS)   =      -0.00000000 Ry

     convergence has been achieved in   7 iterations

     Forces acting on atoms (cartesian axes, Ry/au):

     atom    1 type  1   force =     0.00000000    0.00000000   -0.00000000
     atom    2 type  1   force =     0.00000000   -0.00000000    0.00000000

     Total force =     0.000000     Total SCF correction =     0.000000


     Computing stress (Cartesian axis) and pressure

          total   stress  (Ry/bohr**3)                   (kbar)     P=   12.16
   0.00008265   0.00000000   0.00000000         12.16      0.00      0.00
   0.00000000   0.00008265   0.00000000          0.00     12.16      0.00
   0.00000000   0.00000000   0.00008265          0.00      0.00     12.16


     number of scf cycles    =   5
     number of bfgs steps    =   4

     enthalpy old            =     -29.2830410034 Ry
     enthalpy new            =     -29.2856904751 Ry

     CASE: enthalpy_new < enthalpy_old

     new trust radius        =       0.0306660947 bohr
     new conv_thr            =       0.0000001000 Ry

     new unit-cell volume =    202.38962 a.u.^3 (    29.99105 Ang^3 )
     density =      0.76862 g/cm^3

CELL_PARAMETERS (angstrom)
   3.106923388   0.000000000   0.000000000
   0.000000000   3.106923388   0.000000000
   0.000000000   0.000000000   3.106923388

ATOMIC_POSITIONS (angstrom)
Li       0.000000000   0.000000000  -0.000000000
Li       1.553461694   1.553461694   1.553461694



     Writing output data file VLAB.save/
     Message from routine punch:
     wavefunctions written to file
     NEW-OLD atomic charge density approx. for the potential
     extrapolated charge    6.16396, renormalised to    6.00000

     total cpu time spent up to now is        6.0 secs

     Self-consistent Calculation

     iteration #  1     ecut=    30.00 Ry     beta= 0.50
     Davidson diagonalization with overlap
     ethr =  1.00E-06,  avg # of iterations =  3.0

     total cpu time spent up to now is        6.0 secs

     total energy              =     -29.28508193 Ry
     Harris-Foulkes estimate   =     -29.14531003 Ry
     estimated scf accuracy    <       0.00059624 Ry

     iteration #  2     ecut=    30.00 Ry     beta= 0.50
     Davidson diagonalization with overlap
     ethr =  9.94E-06,  avg # of iterations =  3.0

     total cpu time spent up to now is        6.0 secs

     total energy              =     -29.28590201 Ry
     Harris-Foulkes estimate   =     -29.28590131 Ry
     estimated scf accuracy    <       0.00000854 Ry

     iteration #  3     ecut=    30.00 Ry     beta= 0.50
     Davidson diagonalization with overlap
     ethr =  1.42E-07,  avg # of iterations =  1.0

     total cpu time spent up to now is        6.0 secs

     total energy              =     -29.28590240 Ry
     Harris-Foulkes estimate   =     -29.28590206 Ry
     estimated scf accuracy    <       0.00000210 Ry

     iteration #  4     ecut=    30.00 Ry     beta= 0.50
     Davidson diagonalization with overlap
     ethr =  3.51E-08,  avg # of iterations =  1.0

     total cpu time spent up to now is        6.0 secs

     End of self-consistent calculation

          k = 0.0000 0.0000 0.0000 (   739 PWs)   bands (ev):

   -43.9101 -43.8103  -1.9255   8.7223   8.7223   8.7223  11.2423

     the Fermi energy is     4.3891 ev

!    total energy              =     -29.28590246 Ry
     Harris-Foulkes estimate   =     -29.28590246 Ry
     estimated scf accuracy    <          4.2E-09 Ry

     The total energy is the sum of the following terms:

     one-electron contribution =     -18.16008780 Ry
     hartree contribution      =       6.92295435 Ry
     xc contribution           =      -6.89162580 Ry
     ewald contribution        =     -11.15714321 Ry
     smearing contrib. (-TS)   =      -0.00000000 Ry

     convergence has been achieved in   4 iterations

     Forces acting on atoms (cartesian axes, Ry/au):

     atom    1 type  1   force =     0.00000000    0.00000000    0.00000000
     atom    2 type  1   force =     0.00000000    0.00000000    0.00000000

     Total force =     0.000000     Total SCF correction =     0.000000


     Computing stress (Cartesian axis) and pressure

          total   stress  (Ry/bohr**3)                   (kbar)     P=   -1.42
  -0.00000968   0.00000000   0.00000000         -1.42      0.00      0.00
   0.00000000  -0.00000968   0.00000000          0.00     -1.42      0.00
   0.00000000   0.00000000  -0.00000968          0.00      0.00     -1.42


     number of scf cycles    =   6
     number of bfgs steps    =   5

     enthalpy old            =     -29.2856904751 Ry
     enthalpy new            =     -29.2859024626 Ry

     CASE: enthalpy_new < enthalpy_old

     new trust radius        =       0.0032953078 bohr
     new conv_thr            =       0.0000001000 Ry

     new unit-cell volume =    201.68723 a.u.^3 (    29.88696 Ang^3 )
     density =      0.77129 g/cm^3

CELL_PARAMETERS (angstrom)
   3.103325046   0.000000000   0.000000000
   0.000000000   3.103325046   0.000000000
   0.000000000   0.000000000   3.103325046

ATOMIC_POSITIONS (angstrom)
Li       0.000000000   0.000000000  -0.000000000
Li       1.551662523   1.551662523   1.551662523



     Writing output data file VLAB.save/
     Message from routine punch:
     wavefunctions written to file
     NEW-OLD atomic charge density approx. for the potential
     extrapolated charge    5.98224, renormalised to    6.00000

     total cpu time spent up to now is        6.0 secs

     Self-consistent Calculation

     iteration #  1     ecut=    30.00 Ry     beta= 0.50
     Davidson diagonalization with overlap
     ethr =  1.00E-06,  avg # of iterations =  2.0

     total cpu time spent up to now is        6.0 secs

     total energy              =     -29.28589778 Ry
     Harris-Foulkes estimate   =     -29.30056557 Ry
     estimated scf accuracy    <       0.00000765 Ry

     iteration #  2     ecut=    30.00 Ry     beta= 0.50
     Davidson diagonalization with overlap
     ethr =  1.27E-07,  avg # of iterations =  3.0

     total cpu time spent up to now is        6.0 secs

     End of self-consistent calculation

          k = 0.0000 0.0000 0.0000 (   739 PWs)   bands (ev):

   -43.8920 -43.7909  -1.9153   8.7508   8.7508   8.7508  11.2750

     the Fermi energy is     4.4199 ev

!    total energy              =     -29.28590727 Ry
     Harris-Foulkes estimate   =     -29.28590727 Ry
     estimated scf accuracy    <       0.00000010 Ry

     The total energy is the sum of the following terms:

     one-electron contribution =     -18.14083873 Ry
     hartree contribution      =       6.91804792 Ry
     xc contribution           =      -6.89303641 Ry
     ewald contribution        =     -11.17008004 Ry
     smearing contrib. (-TS)   =      -0.00000000 Ry

     convergence has been achieved in   2 iterations

     Forces acting on atoms (cartesian axes, Ry/au):

     atom    1 type  1   force =     0.00000000    0.00000000   -0.00000000
     atom    2 type  1   force =     0.00000000    0.00000000    0.00000000

     Total force =     0.000000     Total SCF correction =     0.000000


     Computing stress (Cartesian axis) and pressure

          total   stress  (Ry/bohr**3)                   (kbar)     P=    0.25
   0.00000168   0.00000000   0.00000000          0.25      0.00      0.00
   0.00000000   0.00000168   0.00000000          0.00      0.25      0.00
   0.00000000   0.00000000   0.00000168          0.00      0.00      0.25


     bfgs converged in   7 scf cycles and   6 bfgs steps
     (criteria: energy <  1.0E-04 Ry, force <  1.0E-03Ry/Bohr, cell <  5.0E-01kbar)

     End of BFGS Geometry Optimization

     Final enthalpy =     -29.2859072708 Ry
Begin final coordinates
     new unit-cell volume =    201.68723 a.u.^3 (    29.88696 Ang^3 )
     density =      0.77129 g/cm^3

CELL_PARAMETERS (angstrom)
   3.103325046   0.000000000   0.000000000
   0.000000000   3.103325046   0.000000000
   0.000000000   0.000000000   3.103325046

ATOMIC_POSITIONS (angstrom)
Li       0.000000000   0.000000000  -0.000000000
Li       1.551662523   1.551662523   1.551662523
End final coordinates



     Writing output data file VLAB.save/
     Message from routine punch:
     wavefunctions written to file

     A final scf calculation at the relaxed structure.
     The G-vectors are recalculated for the final unit cell
     Results may differ from those at the preceding step.
 
     Parallelization info
     --------------------
     sticks:   dense  smooth     PW     G-vecs:    dense   smooth      PW
     Min           6       6      1                   90       90       9
     Max           7       7      2                   95       95      14
     Sum         333     333     89                 4457     4457     587
 


     bravais-lattice index     =            0
     lattice parameter (alat)  =       6.4757  a.u.
     unit-cell volume          =     201.6872 (a.u.)^3
     number of atoms/cell      =            2
     number of atomic types    =            1
     number of electrons       =         6.00
     number of Kohn-Sham states=            7
     kinetic-energy cutoff     =      30.0000  Ry
     charge density cutoff     =     120.0000  Ry
     convergence threshold     =      1.0E-07
     mixing beta               =       0.5000
     number of iterations used =            8  plain     mixing
     Exchange-correlation      =  SLA  PW   PBX  PBC ( 1  4  3  4 0 0)

     celldm(1)=   6.475746  celldm(2)=   0.000000  celldm(3)=   0.000000
     celldm(4)=   0.000000  celldm(5)=   0.000000  celldm(6)=   0.000000

     crystal axes: (cart. coord. in units of alat)
               a(1) = (   0.905600   0.000000   0.000000 )  
               a(2) = (   0.000000   0.905600   0.000000 )  
               a(3) = (   0.000000   0.000000   0.905600 )  

     reciprocal axes: (cart. coord. in units 2 pi/alat)
               b(1) = (  1.104240  0.000000  0.000000 )  
               b(2) = (  0.000000  1.104240  0.000000 )  
               b(3) = (  0.000000  0.000000  1.104240 )  


     PseudoPot. # 1 for Li read from file:
     ./li_pbe_v1.4.uspp.F.UPF
     MD5 check sum: e912e257baa3777c20ea3d68f190483c
     Pseudo is Ultrasoft, Zval =  3.0
     Generated by new atomic code, or converted to UPF format
     Using radial grid of  751 points,  5 beta functions with: 
                l(1) =   0
                l(2) =   0
                l(3) =   0
                l(4) =   1
                l(5) =   1
     Q(r) pseudized with 10 coefficients,  rinner =    1.150   1.150   1.150


     atomic species   valence    mass     pseudopotential
        Li             3.00     6.94100     Li( 1.00)

     48 Sym. Ops., with inversion, found



   Cartesian axes

     site n.     atom                  positions (alat units)
         1           Li  tau(   1) = (   0.0000000   0.0000000  -0.0000000  )
         2           Li  tau(   2) = (   0.4527999   0.4527999   0.4527999  )

     number of k points=     1  gaussian smearing, width (Ry)=  0.0020
                       cart. coord. in units 2pi/alat
        k(    1) = (   0.0000000   0.0000000   0.0000000), wk =   2.0000000

     Dense  grid:     4457 G-vectors     FFT dimensions: (  24,  24,  24)

     Estimated max dynamical RAM per process >       0.95 MB

     Estimated total dynamical RAM >      45.49 MB
     Message from routine sym_rho_init:
     some processors have no G-vectors for symmetrization
     Message from routine sym_rho_init:
     some processors have no G-vectors for symmetrization
     Message from routine sym_rho_init:
     some processors have no G-vectors for symmetrization
     Message from routine sym_rho_init:
     some processors have no G-vectors for symmetrization
     Message from routine sym_rho_init:
     some processors have no G-vectors for symmetrization
     Message from routine sym_rho_init:
     some processors have no G-vectors for symmetrization
     Message from routine sym_rho_init:
     some processors have no G-vectors for symmetrization
     Message from routine sym_rho_init:
     some processors have no G-vectors for symmetrization
     Message from routine sym_rho_init:
     some processors have no G-vectors for symmetrization
     Message from routine sym_rho_init:
     some processors have no G-vectors for symmetrization
     Message from routine sym_rho_init:
     some processors have no G-vectors for symmetrization
     Message from routine sym_rho_init:
     some processors have no G-vectors for symmetrization
     Message from routine sym_rho_init:
     some processors have no G-vectors for symmetrization
     Message from routine sym_rho_init:
     some processors have no G-vectors for symmetrization
     Message from routine sym_rho_init:
     some processors have no G-vectors for symmetrization
     Message from routine sym_rho_init:
     some processors have no G-vectors for symmetrization
     Message from routine sym_rho_init:
     some processors have no G-vectors for symmetrization
     Message from routine sym_rho_init:
     some processors have no G-vectors for symmetrization

     Initial potential from superposition of free atoms

     starting charge    5.09851, renormalised to    6.00000
     Starting wfcs are   10 randomized atomic wfcs

     total cpu time spent up to now is        6.0 secs

     Self-consistent Calculation

     iteration #  1     ecut=    30.00 Ry     beta= 0.50
     Davidson diagonalization with overlap
     ethr =  1.00E-06,  avg # of iterations = 10.0

     total cpu time spent up to now is        6.1 secs

     total energy              =     -29.31403897 Ry
     Harris-Foulkes estimate   =     -29.48529122 Ry
     estimated scf accuracy    <       0.29702007 Ry

     iteration #  2     ecut=    30.00 Ry     beta= 0.50
     Davidson diagonalization with overlap
     ethr =  4.95E-03,  avg # of iterations =  1.0

     total cpu time spent up to now is        6.1 secs

     total energy              =     -29.27709012 Ry
     Harris-Foulkes estimate   =     -29.32116366 Ry
     estimated scf accuracy    <       0.05841501 Ry

     iteration #  3     ecut=    30.00 Ry     beta= 0.50
     Davidson diagonalization with overlap
     ethr =  9.74E-04,  avg # of iterations =  2.0

     total cpu time spent up to now is        6.1 secs

     total energy              =     -29.28402422 Ry
     Harris-Foulkes estimate   =     -29.28402752 Ry
     estimated scf accuracy    <       0.00024416 Ry

     iteration #  4     ecut=    30.00 Ry     beta= 0.50
     Davidson diagonalization with overlap
     ethr =  4.07E-06,  avg # of iterations =  3.0

     total cpu time spent up to now is        6.1 secs

     total energy              =     -29.28464972 Ry
     Harris-Foulkes estimate   =     -29.28465940 Ry
     estimated scf accuracy    <       0.00001548 Ry

     iteration #  5     ecut=    30.00 Ry     beta= 0.50
     Davidson diagonalization with overlap
     ethr =  2.58E-07,  avg # of iterations =  2.0

     total cpu time spent up to now is        6.1 secs

     total energy              =     -29.28465211 Ry
     Harris-Foulkes estimate   =     -29.28465170 Ry
     estimated scf accuracy    <       0.00000018 Ry

     iteration #  6     ecut=    30.00 Ry     beta= 0.50
     Davidson diagonalization with overlap
     ethr =  3.06E-09,  avg # of iterations =  2.0

     total cpu time spent up to now is        6.1 secs

     End of self-consistent calculation

          k = 0.0000 0.0000 0.0000 (   587 PWs)   bands (ev):

   -43.8927 -43.7862  -1.9167   8.7489   8.7489   8.7489  11.2736

     the Fermi energy is     4.4187 ev

!    total energy              =     -29.28465219 Ry
     Harris-Foulkes estimate   =     -29.28465219 Ry
     estimated scf accuracy    <          1.5E-09 Ry

     The total energy is the sum of the following terms:

     one-electron contribution =     -18.13886400 Ry
     hartree contribution      =       6.91609949 Ry
     xc contribution           =      -6.89180762 Ry
     ewald contribution        =     -11.17008007 Ry
     smearing contrib. (-TS)   =      -0.00000000 Ry

     convergence has been achieved in   6 iterations

     Forces acting on atoms (cartesian axes, Ry/au):

     atom    1 type  1   force =     0.00000000   -0.00000000    0.00000000
     atom    2 type  1   force =     0.00000000    0.00000000   -0.00000000

     Total force =     0.000000     Total SCF correction =     0.000000


     Computing stress (Cartesian axis) and pressure

          total   stress  (Ry/bohr**3)                   (kbar)     P=   -9.59
  -0.00006516   0.00000000   0.00000000         -9.59      0.00      0.00
   0.00000000  -0.00006516   0.00000000          0.00     -9.59      0.00
   0.00000000   0.00000000  -0.00006516          0.00      0.00     -9.59


     Writing output data file VLAB.save/
 
     init_run     :      0.41s CPU      3.34s WALL (       2 calls)
     electrons    :      0.43s CPU      0.51s WALL (       8 calls)
     update_pot   :      0.01s CPU      0.01s WALL (       6 calls)
     forces       :      0.01s CPU      0.01s WALL (       8 calls)
     stress       :      0.01s CPU      0.01s WALL (       8 calls)

     Called by init_run:
     wfcinit      :      0.39s CPU      1.65s WALL (       2 calls)
     potinit      :      0.00s CPU      0.01s WALL (       2 calls)
     hinit0       :      0.01s CPU      1.19s WALL (       2 calls)

     Called by electrons:
     c_bands      :      0.37s CPU      0.39s WALL (      38 calls)
     sum_band     :      0.02s CPU      0.07s WALL (      38 calls)
     v_of_rho     :      0.02s CPU      0.03s WALL (      46 calls)
     newd         :      0.01s CPU      0.39s WALL (      46 calls)
     mix_rho      :      0.00s CPU      0.00s WALL (      38 calls)

     Called by c_bands:
     init_us_2    :      0.00s CPU      0.00s WALL (      78 calls)
     cegterg      :      0.36s CPU      0.39s WALL (      38 calls)

     Called by sum_band:
     sum_band:bec :      0.00s CPU      0.00s WALL (      38 calls)
     addusdens    :      0.01s CPU      0.05s WALL (      38 calls)

     Called by *egterg:
     h_psi        :      0.04s CPU      0.14s WALL (     131 calls)
     s_psi        :      0.00s CPU      0.00s WALL (     131 calls)
     g_psi        :      0.00s CPU      0.00s WALL (      91 calls)
     cdiaghg      :      0.69s CPU      1.77s WALL (     123 calls)

     Called by h_psi:
     h_psi:pot    :      0.04s CPU      0.14s WALL (     131 calls)
     h_psi:calbec :      0.00s CPU      0.09s WALL (     131 calls)
     vloc_psi     :      0.04s CPU      0.05s WALL (     131 calls)
     add_vuspsi   :      0.00s CPU      0.00s WALL (     131 calls)

     General routines
     calbec       :      0.00s CPU      0.09s WALL (     209 calls)
     fft          :      0.02s CPU      1.19s WALL (     576 calls)
     ffts         :      0.00s CPU      0.00s WALL (      38 calls)
     fftw         :      0.05s CPU      0.05s WALL (    1740 calls)
     davcio       :      0.00s CPU      0.00s WALL (       7 calls)
 
     Parallel routines
     fft_scatt_xy :      0.00s CPU      0.00s WALL (    2354 calls)
     fft_scatt_yz :      0.05s CPU      0.06s WALL (    2354 calls)
 
     PWSCF        :      0.92s CPU      6.10s WALL

 
   This run was terminated on:   7:31:44  16Apr2020            

=------------------------------------------------------------------------------=
   JOB DONE.
=------------------------------------------------------------------------------=
