
     Program PWSCF v.6.4.1 starts on 16Apr2020 at  7:41:23 

     This program is part of the open-source Quantum ESPRESSO suite
     for quantum simulation of materials; please cite
         "P. Giannozzi et al., J. Phys.:Condens. Matter 21 395502 (2009);
         "P. Giannozzi et al., J. Phys.:Condens. Matter 29 465901 (2017);
          URL http://www.quantum-espresso.org", 
     in publications or presentations arising from this work. More details at
     http://www.quantum-espresso.org/quote

     Parallel version (MPI), running on    48 processors

     MPI processes distributed on     1 nodes
     R & G space division:  proc/nbgrp/npool/nimage =      48
     Waiting for input...
     Reading input from standard input

     Current dimensions of program PWSCF are:
     Max number of different atomic species (ntypx) = 10
     Max number of k-points (npk) =  40000
     Max angular momentum in pseudopotentials (lmaxx) =  3

     Subspace diagonalization in iterative solution of the eigenvalue problem:
     one sub-group per band group will be used
     scalapack distributed-memory algorithm (size of sub-group:  4*  4 procs)

     Found symmetry operation: I + ( -0.5000 -0.5000 -0.5000)
     This is a supercell, fractional translations are disabled
     Message from routine setup:
     DEPRECATED: symmetry with ibrav=0, use correct ibrav instead
 
     Parallelization info
     --------------------
     sticks:   dense  smooth     PW     G-vecs:    dense   smooth      PW
     Min          12       8      2                  228      124      21
     Max          13       9      3                  235      129      27
     Sum         593     401    137                11067     6031    1141
 


     bravais-lattice index     =            0
     lattice parameter (alat)  =       6.4757  a.u.
     unit-cell volume          =     271.5623 (a.u.)^3
     number of atoms/cell      =            2
     number of atomic types    =            1
     number of electrons       =         6.00
     number of Kohn-Sham states=            7
     kinetic-energy cutoff     =      30.0000  Ry
     charge density cutoff     =     180.0000  Ry
     convergence threshold     =      1.0E-06
     mixing beta               =       0.5000
     number of iterations used =            8  plain     mixing
     Exchange-correlation      =  SLA  PW   PBX  PBC ( 1  4  3  4 0 0)
     nstep                     =          200


     celldm(1)=   6.475746  celldm(2)=   0.000000  celldm(3)=   0.000000
     celldm(4)=   0.000000  celldm(5)=   0.000000  celldm(6)=   0.000000

     crystal axes: (cart. coord. in units of alat)
               a(1) = (   1.000000   0.000000   0.000000 )  
               a(2) = (   0.000000   1.000000   0.000000 )  
               a(3) = (   0.000000   0.000000   1.000000 )  

     reciprocal axes: (cart. coord. in units 2 pi/alat)
               b(1) = (  1.000000  0.000000  0.000000 )  
               b(2) = (  0.000000  1.000000  0.000000 )  
               b(3) = (  0.000000  0.000000  1.000000 )  


     PseudoPot. # 1 for Li read from file:
     ./li_pbe_v1.4.uspp.F.UPF
     MD5 check sum: e912e257baa3777c20ea3d68f190483c
     Pseudo is Ultrasoft, Zval =  3.0
     Generated by new atomic code, or converted to UPF format
     Using radial grid of  751 points,  5 beta functions with: 
                l(1) =   0
                l(2) =   0
                l(3) =   0
                l(4) =   1
                l(5) =   1
     Q(r) pseudized with 10 coefficients,  rinner =    1.150   1.150   1.150


     atomic species   valence    mass     pseudopotential
        Li             3.00     6.94100     Li( 1.00)

     48 Sym. Ops., with inversion, found


                                    s                        frac. trans.

      isym =  1     identity                                     

 cryst.   s( 1) = (     1          0          0      )
                  (     0          1          0      )
                  (     0          0          1      )

 cart.    s( 1) = (  1.0000000  0.0000000  0.0000000 )
                  (  0.0000000  1.0000000  0.0000000 )
                  (  0.0000000  0.0000000  1.0000000 )


      isym =  2     180 deg rotation - cart. axis [0,0,1]        

 cryst.   s( 2) = (    -1          0          0      )
                  (     0         -1          0      )
                  (     0          0          1      )

 cart.    s( 2) = ( -1.0000000  0.0000000  0.0000000 )
                  (  0.0000000 -1.0000000  0.0000000 )
                  (  0.0000000  0.0000000  1.0000000 )


      isym =  3     180 deg rotation - cart. axis [0,1,0]        

 cryst.   s( 3) = (    -1          0          0      )
                  (     0          1          0      )
                  (     0          0         -1      )

 cart.    s( 3) = ( -1.0000000  0.0000000  0.0000000 )
                  (  0.0000000  1.0000000  0.0000000 )
                  (  0.0000000  0.0000000 -1.0000000 )


      isym =  4     180 deg rotation - cart. axis [1,0,0]        

 cryst.   s( 4) = (     1          0          0      )
                  (     0         -1          0      )
                  (     0          0         -1      )

 cart.    s( 4) = (  1.0000000  0.0000000  0.0000000 )
                  (  0.0000000 -1.0000000  0.0000000 )
                  (  0.0000000  0.0000000 -1.0000000 )


      isym =  5     180 deg rotation - cart. axis [1,1,0]        

 cryst.   s( 5) = (     0          1          0      )
                  (     1          0          0      )
                  (     0          0         -1      )

 cart.    s( 5) = (  0.0000000  1.0000000  0.0000000 )
                  (  1.0000000  0.0000000  0.0000000 )
                  (  0.0000000  0.0000000 -1.0000000 )


      isym =  6     180 deg rotation - cart. axis [1,-1,0]       

 cryst.   s( 6) = (     0         -1          0      )
                  (    -1          0          0      )
                  (     0          0         -1      )

 cart.    s( 6) = (  0.0000000 -1.0000000  0.0000000 )
                  ( -1.0000000  0.0000000  0.0000000 )
                  (  0.0000000  0.0000000 -1.0000000 )


      isym =  7      90 deg rotation - cart. axis [0,0,-1]       

 cryst.   s( 7) = (     0         -1          0      )
                  (     1          0          0      )
                  (     0          0          1      )

 cart.    s( 7) = (  0.0000000  1.0000000  0.0000000 )
                  ( -1.0000000  0.0000000  0.0000000 )
                  (  0.0000000  0.0000000  1.0000000 )


      isym =  8      90 deg rotation - cart. axis [0,0,1]        

 cryst.   s( 8) = (     0          1          0      )
                  (    -1          0          0      )
                  (     0          0          1      )

 cart.    s( 8) = (  0.0000000 -1.0000000  0.0000000 )
                  (  1.0000000  0.0000000  0.0000000 )
                  (  0.0000000  0.0000000  1.0000000 )


      isym =  9     180 deg rotation - cart. axis [1,0,1]        

 cryst.   s( 9) = (     0          0          1      )
                  (     0         -1          0      )
                  (     1          0          0      )

 cart.    s( 9) = (  0.0000000  0.0000000  1.0000000 )
                  (  0.0000000 -1.0000000  0.0000000 )
                  (  1.0000000  0.0000000  0.0000000 )


      isym = 10     180 deg rotation - cart. axis [-1,0,1]       

 cryst.   s(10) = (     0          0         -1      )
                  (     0         -1          0      )
                  (    -1          0          0      )

 cart.    s(10) = (  0.0000000  0.0000000 -1.0000000 )
                  (  0.0000000 -1.0000000  0.0000000 )
                  ( -1.0000000  0.0000000  0.0000000 )


      isym = 11      90 deg rotation - cart. axis [0,1,0]        

 cryst.   s(11) = (     0          0         -1      )
                  (     0          1          0      )
                  (     1          0          0      )

 cart.    s(11) = (  0.0000000  0.0000000  1.0000000 )
                  (  0.0000000  1.0000000  0.0000000 )
                  ( -1.0000000  0.0000000  0.0000000 )


      isym = 12      90 deg rotation - cart. axis [0,-1,0]       

 cryst.   s(12) = (     0          0          1      )
                  (     0          1          0      )
                  (    -1          0          0      )

 cart.    s(12) = (  0.0000000  0.0000000 -1.0000000 )
                  (  0.0000000  1.0000000  0.0000000 )
                  (  1.0000000  0.0000000  0.0000000 )


      isym = 13     180 deg rotation - cart. axis [0,1,1]        

 cryst.   s(13) = (    -1          0          0      )
                  (     0          0          1      )
                  (     0          1          0      )

 cart.    s(13) = ( -1.0000000  0.0000000  0.0000000 )
                  (  0.0000000  0.0000000  1.0000000 )
                  (  0.0000000  1.0000000  0.0000000 )


      isym = 14     180 deg rotation - cart. axis [0,1,-1]       

 cryst.   s(14) = (    -1          0          0      )
                  (     0          0         -1      )
                  (     0         -1          0      )

 cart.    s(14) = ( -1.0000000  0.0000000  0.0000000 )
                  (  0.0000000  0.0000000 -1.0000000 )
                  (  0.0000000 -1.0000000  0.0000000 )


      isym = 15      90 deg rotation - cart. axis [-1,0,0]       

 cryst.   s(15) = (     1          0          0      )
                  (     0          0         -1      )
                  (     0          1          0      )

 cart.    s(15) = (  1.0000000  0.0000000  0.0000000 )
                  (  0.0000000  0.0000000  1.0000000 )
                  (  0.0000000 -1.0000000  0.0000000 )


      isym = 16      90 deg rotation - cart. axis [1,0,0]        

 cryst.   s(16) = (     1          0          0      )
                  (     0          0          1      )
                  (     0         -1          0      )

 cart.    s(16) = (  1.0000000  0.0000000  0.0000000 )
                  (  0.0000000  0.0000000 -1.0000000 )
                  (  0.0000000  1.0000000  0.0000000 )


      isym = 17     120 deg rotation - cart. axis [-1,-1,-1]     

 cryst.   s(17) = (     0          0          1      )
                  (     1          0          0      )
                  (     0          1          0      )

 cart.    s(17) = (  0.0000000  1.0000000  0.0000000 )
                  (  0.0000000  0.0000000  1.0000000 )
                  (  1.0000000  0.0000000  0.0000000 )


      isym = 18     120 deg rotation - cart. axis [-1,1,1]       

 cryst.   s(18) = (     0          0         -1      )
                  (    -1          0          0      )
                  (     0          1          0      )

 cart.    s(18) = (  0.0000000 -1.0000000  0.0000000 )
                  (  0.0000000  0.0000000  1.0000000 )
                  ( -1.0000000  0.0000000  0.0000000 )


      isym = 19     120 deg rotation - cart. axis [1,1,-1]       

 cryst.   s(19) = (     0          0         -1      )
                  (     1          0          0      )
                  (     0         -1          0      )

 cart.    s(19) = (  0.0000000  1.0000000  0.0000000 )
                  (  0.0000000  0.0000000 -1.0000000 )
                  ( -1.0000000  0.0000000  0.0000000 )


      isym = 20     120 deg rotation - cart. axis [1,-1,1]       

 cryst.   s(20) = (     0          0          1      )
                  (    -1          0          0      )
                  (     0         -1          0      )

 cart.    s(20) = (  0.0000000 -1.0000000  0.0000000 )
                  (  0.0000000  0.0000000 -1.0000000 )
                  (  1.0000000  0.0000000  0.0000000 )


      isym = 21     120 deg rotation - cart. axis [1,1,1]        

 cryst.   s(21) = (     0          1          0      )
                  (     0          0          1      )
                  (     1          0          0      )

 cart.    s(21) = (  0.0000000  0.0000000  1.0000000 )
                  (  1.0000000  0.0000000  0.0000000 )
                  (  0.0000000  1.0000000  0.0000000 )


      isym = 22     120 deg rotation - cart. axis [-1,1,-1]      

 cryst.   s(22) = (     0         -1          0      )
                  (     0          0         -1      )
                  (     1          0          0      )

 cart.    s(22) = (  0.0000000  0.0000000  1.0000000 )
                  ( -1.0000000  0.0000000  0.0000000 )
                  (  0.0000000 -1.0000000  0.0000000 )


      isym = 23     120 deg rotation - cart. axis [1,-1,-1]      

 cryst.   s(23) = (     0         -1          0      )
                  (     0          0          1      )
                  (    -1          0          0      )

 cart.    s(23) = (  0.0000000  0.0000000 -1.0000000 )
                  ( -1.0000000  0.0000000  0.0000000 )
                  (  0.0000000  1.0000000  0.0000000 )


      isym = 24     120 deg rotation - cart. axis [-1,-1,1]      

 cryst.   s(24) = (     0          1          0      )
                  (     0          0         -1      )
                  (    -1          0          0      )

 cart.    s(24) = (  0.0000000  0.0000000 -1.0000000 )
                  (  1.0000000  0.0000000  0.0000000 )
                  (  0.0000000 -1.0000000  0.0000000 )


      isym = 25     inversion                                    

 cryst.   s(25) = (    -1          0          0      )
                  (     0         -1          0      )
                  (     0          0         -1      )

 cart.    s(25) = ( -1.0000000  0.0000000  0.0000000 )
                  (  0.0000000 -1.0000000  0.0000000 )
                  (  0.0000000  0.0000000 -1.0000000 )


      isym = 26     inv. 180 deg rotation - cart. axis [0,0,1]   

 cryst.   s(26) = (     1          0          0      )
                  (     0          1          0      )
                  (     0          0         -1      )

 cart.    s(26) = (  1.0000000  0.0000000  0.0000000 )
                  (  0.0000000  1.0000000  0.0000000 )
                  (  0.0000000  0.0000000 -1.0000000 )


      isym = 27     inv. 180 deg rotation - cart. axis [0,1,0]   

 cryst.   s(27) = (     1          0          0      )
                  (     0         -1          0      )
                  (     0          0          1      )

 cart.    s(27) = (  1.0000000  0.0000000  0.0000000 )
                  (  0.0000000 -1.0000000  0.0000000 )
                  (  0.0000000  0.0000000  1.0000000 )


      isym = 28     inv. 180 deg rotation - cart. axis [1,0,0]   

 cryst.   s(28) = (    -1          0          0      )
                  (     0          1          0      )
                  (     0          0          1      )

 cart.    s(28) = ( -1.0000000  0.0000000  0.0000000 )
                  (  0.0000000  1.0000000  0.0000000 )
                  (  0.0000000  0.0000000  1.0000000 )


      isym = 29     inv. 180 deg rotation - cart. axis [1,1,0]   

 cryst.   s(29) = (     0         -1          0      )
                  (    -1          0          0      )
                  (     0          0          1      )

 cart.    s(29) = (  0.0000000 -1.0000000  0.0000000 )
                  ( -1.0000000  0.0000000  0.0000000 )
                  (  0.0000000  0.0000000  1.0000000 )


      isym = 30     inv. 180 deg rotation - cart. axis [1,-1,0]  

 cryst.   s(30) = (     0          1          0      )
                  (     1          0          0      )
                  (     0          0          1      )

 cart.    s(30) = (  0.0000000  1.0000000  0.0000000 )
                  (  1.0000000  0.0000000  0.0000000 )
                  (  0.0000000  0.0000000  1.0000000 )


      isym = 31     inv.  90 deg rotation - cart. axis [0,0,-1]  

 cryst.   s(31) = (     0          1          0      )
                  (    -1          0          0      )
                  (     0          0         -1      )

 cart.    s(31) = (  0.0000000 -1.0000000  0.0000000 )
                  (  1.0000000  0.0000000  0.0000000 )
                  (  0.0000000  0.0000000 -1.0000000 )


      isym = 32     inv.  90 deg rotation - cart. axis [0,0,1]   

 cryst.   s(32) = (     0         -1          0      )
                  (     1          0          0      )
                  (     0          0         -1      )

 cart.    s(32) = (  0.0000000  1.0000000  0.0000000 )
                  ( -1.0000000  0.0000000  0.0000000 )
                  (  0.0000000  0.0000000 -1.0000000 )


      isym = 33     inv. 180 deg rotation - cart. axis [1,0,1]   

 cryst.   s(33) = (     0          0         -1      )
                  (     0          1          0      )
                  (    -1          0          0      )

 cart.    s(33) = (  0.0000000  0.0000000 -1.0000000 )
                  (  0.0000000  1.0000000  0.0000000 )
                  ( -1.0000000  0.0000000  0.0000000 )


      isym = 34     inv. 180 deg rotation - cart. axis [-1,0,1]  

 cryst.   s(34) = (     0          0          1      )
                  (     0          1          0      )
                  (     1          0          0      )

 cart.    s(34) = (  0.0000000  0.0000000  1.0000000 )
                  (  0.0000000  1.0000000  0.0000000 )
                  (  1.0000000  0.0000000  0.0000000 )


      isym = 35     inv.  90 deg rotation - cart. axis [0,1,0]   

 cryst.   s(35) = (     0          0          1      )
                  (     0         -1          0      )
                  (    -1          0          0      )

 cart.    s(35) = (  0.0000000  0.0000000 -1.0000000 )
                  (  0.0000000 -1.0000000  0.0000000 )
                  (  1.0000000  0.0000000  0.0000000 )


      isym = 36     inv.  90 deg rotation - cart. axis [0,-1,0]  

 cryst.   s(36) = (     0          0         -1      )
                  (     0         -1          0      )
                  (     1          0          0      )

 cart.    s(36) = (  0.0000000  0.0000000  1.0000000 )
                  (  0.0000000 -1.0000000  0.0000000 )
                  ( -1.0000000  0.0000000  0.0000000 )


      isym = 37     inv. 180 deg rotation - cart. axis [0,1,1]   

 cryst.   s(37) = (     1          0          0      )
                  (     0          0         -1      )
                  (     0         -1          0      )

 cart.    s(37) = (  1.0000000  0.0000000  0.0000000 )
                  (  0.0000000  0.0000000 -1.0000000 )
                  (  0.0000000 -1.0000000  0.0000000 )


      isym = 38     inv. 180 deg rotation - cart. axis [0,1,-1]  

 cryst.   s(38) = (     1          0          0      )
                  (     0          0          1      )
                  (     0          1          0      )

 cart.    s(38) = (  1.0000000  0.0000000  0.0000000 )
                  (  0.0000000  0.0000000  1.0000000 )
                  (  0.0000000  1.0000000  0.0000000 )


      isym = 39     inv.  90 deg rotation - cart. axis [-1,0,0]  

 cryst.   s(39) = (    -1          0          0      )
                  (     0          0          1      )
                  (     0         -1          0      )

 cart.    s(39) = ( -1.0000000  0.0000000  0.0000000 )
                  (  0.0000000  0.0000000 -1.0000000 )
                  (  0.0000000  1.0000000  0.0000000 )


      isym = 40     inv.  90 deg rotation - cart. axis [1,0,0]   

 cryst.   s(40) = (    -1          0          0      )
                  (     0          0         -1      )
                  (     0          1          0      )

 cart.    s(40) = ( -1.0000000  0.0000000  0.0000000 )
                  (  0.0000000  0.0000000  1.0000000 )
                  (  0.0000000 -1.0000000  0.0000000 )


      isym = 41     inv. 120 deg rotation - cart. axis [-1,-1,-1]

 cryst.   s(41) = (     0          0         -1      )
                  (    -1          0          0      )
                  (     0         -1          0      )

 cart.    s(41) = (  0.0000000 -1.0000000  0.0000000 )
                  (  0.0000000  0.0000000 -1.0000000 )
                  ( -1.0000000  0.0000000  0.0000000 )


      isym = 42     inv. 120 deg rotation - cart. axis [-1,1,1]  

 cryst.   s(42) = (     0          0          1      )
                  (     1          0          0      )
                  (     0         -1          0      )

 cart.    s(42) = (  0.0000000  1.0000000  0.0000000 )
                  (  0.0000000  0.0000000 -1.0000000 )
                  (  1.0000000  0.0000000  0.0000000 )


      isym = 43     inv. 120 deg rotation - cart. axis [1,1,-1]  

 cryst.   s(43) = (     0          0          1      )
                  (    -1          0          0      )
                  (     0          1          0      )

 cart.    s(43) = (  0.0000000 -1.0000000  0.0000000 )
                  (  0.0000000  0.0000000  1.0000000 )
                  (  1.0000000  0.0000000  0.0000000 )


      isym = 44     inv. 120 deg rotation - cart. axis [1,-1,1]  

 cryst.   s(44) = (     0          0         -1      )
                  (     1          0          0      )
                  (     0          1          0      )

 cart.    s(44) = (  0.0000000  1.0000000  0.0000000 )
                  (  0.0000000  0.0000000  1.0000000 )
                  ( -1.0000000  0.0000000  0.0000000 )


      isym = 45     inv. 120 deg rotation - cart. axis [1,1,1]   

 cryst.   s(45) = (     0         -1          0      )
                  (     0          0         -1      )
                  (    -1          0          0      )

 cart.    s(45) = (  0.0000000  0.0000000 -1.0000000 )
                  ( -1.0000000  0.0000000  0.0000000 )
                  (  0.0000000 -1.0000000  0.0000000 )


      isym = 46     inv. 120 deg rotation - cart. axis [-1,1,-1] 

 cryst.   s(46) = (     0          1          0      )
                  (     0          0          1      )
                  (    -1          0          0      )

 cart.    s(46) = (  0.0000000  0.0000000 -1.0000000 )
                  (  1.0000000  0.0000000  0.0000000 )
                  (  0.0000000  1.0000000  0.0000000 )


      isym = 47     inv. 120 deg rotation - cart. axis [1,-1,-1] 

 cryst.   s(47) = (     0          1          0      )
                  (     0          0         -1      )
                  (     1          0          0      )

 cart.    s(47) = (  0.0000000  0.0000000  1.0000000 )
                  (  1.0000000  0.0000000  0.0000000 )
                  (  0.0000000 -1.0000000  0.0000000 )


      isym = 48     inv. 120 deg rotation - cart. axis [-1,-1,1] 

 cryst.   s(48) = (     0         -1          0      )
                  (     0          0          1      )
                  (     1          0          0      )

 cart.    s(48) = (  0.0000000  0.0000000  1.0000000 )
                  ( -1.0000000  0.0000000  0.0000000 )
                  (  0.0000000  1.0000000  0.0000000 )


   Cartesian axes

     site n.     atom                  positions (alat units)
         1           Li  tau(   1) = (   0.0000000   0.0000000   0.0000000  )
         2           Li  tau(   2) = (   0.5000000   0.5000000   0.5000000  )

   Crystallographic axes

     site n.     atom                  positions (cryst. coord.)
         1           Li  tau(   1) = (  0.0000000  0.0000000  0.0000000  )
         2           Li  tau(   2) = (  0.5000000  0.5000000  0.5000000  )

     number of k points=    35  gaussian smearing, width (Ry)=  0.0020
                       cart. coord. in units 2pi/alat
        k(    1) = (   0.0000000   0.0000000   0.0000000), wk =   0.0027435
        k(    2) = (   0.0000000   0.0000000   0.1111111), wk =   0.0164609
        k(    3) = (   0.0000000   0.0000000   0.2222222), wk =   0.0164609
        k(    4) = (   0.0000000   0.0000000   0.3333333), wk =   0.0164609
        k(    5) = (   0.0000000   0.0000000   0.4444444), wk =   0.0164609
        k(    6) = (   0.0000000   0.1111111   0.1111111), wk =   0.0329218
        k(    7) = (   0.0000000   0.1111111   0.2222222), wk =   0.0658436
        k(    8) = (   0.0000000   0.1111111   0.3333333), wk =   0.0658436
        k(    9) = (   0.0000000   0.1111111   0.4444444), wk =   0.0658436
        k(   10) = (   0.0000000   0.2222222   0.2222222), wk =   0.0329218
        k(   11) = (   0.0000000   0.2222222   0.3333333), wk =   0.0658436
        k(   12) = (   0.0000000   0.2222222   0.4444444), wk =   0.0658436
        k(   13) = (   0.0000000   0.3333333   0.3333333), wk =   0.0329218
        k(   14) = (   0.0000000   0.3333333   0.4444444), wk =   0.0658436
        k(   15) = (   0.0000000   0.4444444   0.4444444), wk =   0.0329218
        k(   16) = (   0.1111111   0.1111111   0.1111111), wk =   0.0219479
        k(   17) = (   0.1111111   0.1111111   0.2222222), wk =   0.0658436
        k(   18) = (   0.1111111   0.1111111   0.3333333), wk =   0.0658436
        k(   19) = (   0.1111111   0.1111111   0.4444444), wk =   0.0658436
        k(   20) = (   0.1111111   0.2222222   0.2222222), wk =   0.0658436
        k(   21) = (   0.1111111   0.2222222   0.3333333), wk =   0.1316872
        k(   22) = (   0.1111111   0.2222222   0.4444444), wk =   0.1316872
        k(   23) = (   0.1111111   0.3333333   0.3333333), wk =   0.0658436
        k(   24) = (   0.1111111   0.3333333   0.4444444), wk =   0.1316872
        k(   25) = (   0.1111111   0.4444444   0.4444444), wk =   0.0658436
        k(   26) = (   0.2222222   0.2222222   0.2222222), wk =   0.0219479
        k(   27) = (   0.2222222   0.2222222   0.3333333), wk =   0.0658436
        k(   28) = (   0.2222222   0.2222222   0.4444444), wk =   0.0658436
        k(   29) = (   0.2222222   0.3333333   0.3333333), wk =   0.0658436
        k(   30) = (   0.2222222   0.3333333   0.4444444), wk =   0.1316872
        k(   31) = (   0.2222222   0.4444444   0.4444444), wk =   0.0658436
        k(   32) = (   0.3333333   0.3333333   0.3333333), wk =   0.0219479
        k(   33) = (   0.3333333   0.3333333   0.4444444), wk =   0.0658436
        k(   34) = (   0.3333333   0.4444444   0.4444444), wk =   0.0658436
        k(   35) = (   0.4444444   0.4444444   0.4444444), wk =   0.0219479

                       cryst. coord.
        k(    1) = (   0.0000000   0.0000000   0.0000000), wk =   0.0027435
        k(    2) = (   0.0000000   0.0000000   0.1111111), wk =   0.0164609
        k(    3) = (   0.0000000   0.0000000   0.2222222), wk =   0.0164609
        k(    4) = (   0.0000000   0.0000000   0.3333333), wk =   0.0164609
        k(    5) = (   0.0000000   0.0000000   0.4444444), wk =   0.0164609
        k(    6) = (   0.0000000   0.1111111   0.1111111), wk =   0.0329218
        k(    7) = (   0.0000000   0.1111111   0.2222222), wk =   0.0658436
        k(    8) = (   0.0000000   0.1111111   0.3333333), wk =   0.0658436
        k(    9) = (   0.0000000   0.1111111   0.4444444), wk =   0.0658436
        k(   10) = (   0.0000000   0.2222222   0.2222222), wk =   0.0329218
        k(   11) = (   0.0000000   0.2222222   0.3333333), wk =   0.0658436
        k(   12) = (   0.0000000   0.2222222   0.4444444), wk =   0.0658436
        k(   13) = (   0.0000000   0.3333333   0.3333333), wk =   0.0329218
        k(   14) = (   0.0000000   0.3333333   0.4444444), wk =   0.0658436
        k(   15) = (   0.0000000   0.4444444   0.4444444), wk =   0.0329218
        k(   16) = (   0.1111111   0.1111111   0.1111111), wk =   0.0219479
        k(   17) = (   0.1111111   0.1111111   0.2222222), wk =   0.0658436
        k(   18) = (   0.1111111   0.1111111   0.3333333), wk =   0.0658436
        k(   19) = (   0.1111111   0.1111111   0.4444444), wk =   0.0658436
        k(   20) = (   0.1111111   0.2222222   0.2222222), wk =   0.0658436
        k(   21) = (   0.1111111   0.2222222   0.3333333), wk =   0.1316872
        k(   22) = (   0.1111111   0.2222222   0.4444444), wk =   0.1316872
        k(   23) = (   0.1111111   0.3333333   0.3333333), wk =   0.0658436
        k(   24) = (   0.1111111   0.3333333   0.4444444), wk =   0.1316872
        k(   25) = (   0.1111111   0.4444444   0.4444444), wk =   0.0658436
        k(   26) = (   0.2222222   0.2222222   0.2222222), wk =   0.0219479
        k(   27) = (   0.2222222   0.2222222   0.3333333), wk =   0.0658436
        k(   28) = (   0.2222222   0.2222222   0.4444444), wk =   0.0658436
        k(   29) = (   0.2222222   0.3333333   0.3333333), wk =   0.0658436
        k(   30) = (   0.2222222   0.3333333   0.4444444), wk =   0.1316872
        k(   31) = (   0.2222222   0.4444444   0.4444444), wk =   0.0658436
        k(   32) = (   0.3333333   0.3333333   0.3333333), wk =   0.0219479
        k(   33) = (   0.3333333   0.3333333   0.4444444), wk =   0.0658436
        k(   34) = (   0.3333333   0.4444444   0.4444444), wk =   0.0658436
        k(   35) = (   0.4444444   0.4444444   0.4444444), wk =   0.0219479

     Dense  grid:    11067 G-vectors     FFT dimensions: (  27,  27,  27)

     Smooth grid:     6031 G-vectors     FFT dimensions: (  24,  24,  24)

     Dynamical RAM for                 wfc:       0.00 MB

     Dynamical RAM for     wfc (w. buffer):       0.06 MB

     Dynamical RAM for           str. fact:       0.00 MB

     Dynamical RAM for           local pot:       0.00 MB

     Dynamical RAM for          nlocal pot:       0.00 MB

     Dynamical RAM for                qrad:       0.95 MB

     Dynamical RAM for          rho,v,vnew:       0.03 MB

     Dynamical RAM for               rhoin:       0.01 MB

     Dynamical RAM for            rho*nmix:       0.06 MB

     Dynamical RAM for           G-vectors:       0.01 MB

     Dynamical RAM for          h,s,v(r/c):       0.00 MB

     Dynamical RAM for          <psi|beta>:       0.00 MB

     Dynamical RAM for                 psi:       0.01 MB

     Dynamical RAM for                hpsi:       0.01 MB

     Dynamical RAM for                spsi:       0.01 MB

     Dynamical RAM for      wfcinit/wfcrot:       0.00 MB

     Dynamical RAM for           addusdens:       0.19 MB

     Dynamical RAM for          addusforce:       0.20 MB

     Dynamical RAM for         addusstress:       0.21 MB

     Estimated static dynamical RAM per process >       1.16 MB

     Estimated max dynamical RAM per process >       1.37 MB

     Estimated total dynamical RAM >      65.56 MB
     Message from routine sym_rho_init:
     some processors have no G-vectors for symmetrization
     Message from routine sym_rho_init:
     some processors have no G-vectors for symmetrization
     Message from routine sym_rho_init:
     some processors have no G-vectors for symmetrization

     Initial potential from superposition of free atoms

     starting charge    5.09851, renormalised to    6.00000
     Starting wfcs are random

     total cpu time spent up to now is        5.1 secs

     Self-consistent Calculation

     iteration #  1     ecut=    30.00 Ry     beta= 0.50
     Davidson diagonalization with overlap
     ethr =  1.00E-02,  avg # of iterations =  7.8

     total cpu time spent up to now is        6.1 secs

     total energy              =     -28.97019861 Ry
     Harris-Foulkes estimate   =     -29.17113516 Ry
     estimated scf accuracy    <       0.33647243 Ry

     iteration #  2     ecut=    30.00 Ry     beta= 0.50
     Davidson diagonalization with overlap
     ethr =  5.61E-03,  avg # of iterations =  1.0

     total cpu time spent up to now is        6.3 secs

     total energy              =     -28.93214909 Ry
     Harris-Foulkes estimate   =     -28.98086409 Ry
     estimated scf accuracy    <       0.06250974 Ry

     iteration #  3     ecut=    30.00 Ry     beta= 0.50
     Davidson diagonalization with overlap
     ethr =  1.04E-03,  avg # of iterations =  2.0

     total cpu time spent up to now is        6.4 secs

     total energy              =     -28.94210136 Ry
     Harris-Foulkes estimate   =     -28.94209063 Ry
     estimated scf accuracy    <       0.00020620 Ry

     iteration #  4     ecut=    30.00 Ry     beta= 0.50
     Davidson diagonalization with overlap
     ethr =  3.44E-06,  avg # of iterations =  5.1

     total cpu time spent up to now is        6.8 secs

     total energy              =     -28.94226900 Ry
     Harris-Foulkes estimate   =     -28.94227351 Ry
     estimated scf accuracy    <       0.00002237 Ry

     iteration #  5     ecut=    30.00 Ry     beta= 0.50
     Davidson diagonalization with overlap
     ethr =  3.73E-07,  avg # of iterations =  1.9

     total cpu time spent up to now is        6.9 secs

     End of self-consistent calculation

          k = 0.0000 0.0000 0.0000 (   739 PWs)   bands (ev):

   -45.5497 -45.5155  -2.6202   6.5114   6.5114   6.5114   8.7718

     occupation numbers 
     1.0000   1.0000   1.0000   0.0000   0.0000   0.0000   0.0000

          k = 0.0000 0.0000 0.1111 (   743 PWs)   bands (ev):

   -45.5490 -45.5161  -2.5029   5.1742   6.6633   6.6633   8.9298

     occupation numbers 
     1.0000   1.0000   1.0000   0.0000   0.0000   0.0000   0.0000

          k = 0.0000 0.0000 0.2222 (   751 PWs)   bands (ev):

   -45.5447 -45.5200  -2.1490   3.3596   7.1180   7.1180   9.4038

     occupation numbers 
     1.0000   1.0000   1.0000   0.0000   0.0000   0.0000   0.0000

          k = 0.0000 0.0000 0.3333 (   767 PWs)   bands (ev):

   -45.5400 -45.5251  -1.5543   1.7450   7.8721   7.8721  10.1939

     occupation numbers 
     1.0000   1.0000   1.0000   0.0000   0.0000   0.0000   0.0000

          k = 0.0000 0.0000 0.4444 (   768 PWs)   bands (ev):

   -45.5346 -45.5298  -0.7117   0.3862   8.9183   8.9184  10.2404

     occupation numbers 
     1.0000   1.0000   1.0000   1.0000   0.0000   0.0000   0.0000

          k = 0.0000 0.1111 0.1111 (   750 PWs)   bands (ev):

   -45.5479 -45.5176  -2.3856   4.9102   5.8336   6.8148   9.8710

     occupation numbers 
     1.0000   1.0000   1.0000   0.0000   0.0000   0.0000   0.0000

          k = 0.0000 0.1111 0.2222 (   761 PWs)   bands (ev):

   -45.5445 -45.5210  -2.0323   3.3963   6.0276   7.2683  10.5426

     occupation numbers 
     1.0000   1.0000   1.0000   0.0000   0.0000   0.0000   0.0000

          k = 0.0000 0.1111 0.3333 (   756 PWs)   bands (ev):

   -45.5396 -45.5240  -1.4389   1.8308   6.7436   8.0197  10.6358

     occupation numbers 
     1.0000   1.0000   1.0000   0.0000   0.0000   0.0000   0.0000

          k = 0.0000 0.1111 0.4444 (   757 PWs)   bands (ev):

   -45.5345 -45.5283  -0.6000   0.4901   7.7706   9.0601   9.0789

     occupation numbers 
     1.0000   1.0000   1.0000   1.0000   0.0000   0.0000   0.0000

          k = 0.0000 0.2222 0.2222 (   758 PWs)   bands (ev):

   -45.5411 -45.5229  -1.6811   3.1271   4.9972   7.7174  10.5828

     occupation numbers 
     1.0000   1.0000   1.0000   0.0000   0.0000   0.0000   0.0000

          k = 0.0000 0.2222 0.3333 (   751 PWs)   bands (ev):

   -45.5375 -45.5245  -1.0941   2.0111   5.2566   8.4591   8.8738

     occupation numbers 
     1.0000   1.0000   1.0000   0.0000   0.0000   0.0000   0.0000

          k = 0.0000 0.2222 0.4444 (   753 PWs)   bands (ev):

   -45.5332 -45.5282  -0.2711   0.7800   6.1472   7.3761   9.4782

     occupation numbers 
     1.0000   1.0000   1.0000   1.0000   0.0000   0.0000   0.0000

          k = 0.0000 0.3333 0.3333 (   748 PWs)   bands (ev):

   -45.5339 -45.5267  -0.5255   1.9014   4.4804   7.2411   9.1780

     occupation numbers 
     1.0000   1.0000   1.0000   0.0000   0.0000   0.0000   0.0000

          k = 0.0000 0.3333 0.4444 (   759 PWs)   bands (ev):

   -45.5323 -45.5288   0.2476   1.1538   4.8391   5.8609  10.1408

     occupation numbers 
     1.0000   1.0000   1.0000   0.0000   0.0000   0.0000   0.0000

          k = 0.0000 0.4444 0.4444 (   760 PWs)   bands (ev):

   -45.5308 -45.5298   0.8647   1.2837   4.2551   4.7143  10.9343

     occupation numbers 
     1.0000   1.0000   0.9712   0.0000   0.0000   0.0000   0.0000

          k = 0.1111 0.1111 0.1111 (   754 PWs)   bands (ev):

   -45.5467 -45.5187  -2.2683   5.0647   5.0647   6.6828  11.1500

     occupation numbers 
     1.0000   1.0000   1.0000   0.0000   0.0000   0.0000   0.0000

          k = 0.1111 0.1111 0.2222 (   753 PWs)   bands (ev):

   -45.5431 -45.5209  -1.9151   3.4697   5.5276   7.0226  11.6137

     occupation numbers 
     1.0000   1.0000   1.0000   0.0000   0.0000   0.0000   0.0000

          k = 0.1111 0.1111 0.3333 (   752 PWs)   bands (ev):

   -45.5385 -45.5241  -1.3228   1.9259   6.2973   7.6969  10.3826

     occupation numbers 
     1.0000   1.0000   1.0000   0.0000   0.0000   0.0000   0.0000

          k = 0.1111 0.1111 0.4444 (   760 PWs)   bands (ev):

   -45.5340 -45.5289  -0.4865   0.5974   7.3700   8.6409   8.7377

     occupation numbers 
     1.0000   1.0000   1.0000   1.0000   0.0000   0.0000   0.0000

          k = 0.1111 0.2222 0.2222 (   756 PWs)   bands (ev):

   -45.5408 -45.5227  -1.5634   3.2826   4.7131   7.2631  10.6328

     occupation numbers 
     1.0000   1.0000   1.0000   0.0000   0.0000   0.0000   0.0000

          k = 0.1111 0.2222 0.3333 (   757 PWs)   bands (ev):

   -45.5371 -45.5254  -0.9758   2.1370   5.1073   7.8886   8.8960

     occupation numbers 
     1.0000   1.0000   1.0000   0.0000   0.0000   0.0000   0.0000

          k = 0.1111 0.2222 0.4444 (   756 PWs)   bands (ev):

   -45.5332 -45.5283  -0.1526   0.8989   6.0688   7.3511   8.7863

     occupation numbers 
     1.0000   1.0000   1.0000   0.5489   0.0000   0.0000   0.0000

          k = 0.1111 0.3333 0.3333 (   751 PWs)   bands (ev):

   -45.5341 -45.5265  -0.4036   2.0573   4.4024   7.2868   8.4855

     occupation numbers 
     1.0000   1.0000   1.0000   0.0000   0.0000   0.0000   0.0000

          k = 0.1111 0.3333 0.4444 (   752 PWs)   bands (ev):

   -45.5312 -45.5287   0.3754   1.2934   4.8269   5.8898   9.3454

     occupation numbers 
     1.0000   1.0000   1.0000   0.0000   0.0000   0.0000   0.0000

          k = 0.1111 0.4444 0.4444 (   752 PWs)   bands (ev):

   -45.5300 -45.5291   1.0074   1.4398   4.2596   4.7415  10.1432

     occupation numbers 
     1.0000   1.0000   0.0000   0.0000   0.0000   0.0000   0.0000

          k = 0.2222 0.2222 0.2222 (   745 PWs)   bands (ev):

   -45.5375 -45.5235  -1.2103   3.7487   3.7487   7.0346  10.6253

     occupation numbers 
     1.0000   1.0000   1.0000   0.0000   0.0000   0.0000   0.0000

          k = 0.2222 0.2222 0.3333 (   751 PWs)   bands (ev):

   -45.5351 -45.5256  -0.6225   2.4627   4.5245   7.3744   8.6742

     occupation numbers 
     1.0000   1.0000   1.0000   0.0000   0.0000   0.0000   0.0000

          k = 0.2222 0.2222 0.4444 (   757 PWs)   bands (ev):

   -45.5323 -45.5285   0.1970   1.2374   5.6077   6.9939   8.0405

     occupation numbers 
     1.0000   1.0000   1.0000   0.0000   0.0000   0.0000   0.0000

          k = 0.2222 0.3333 0.3333 (   751 PWs)   bands (ev):

   -45.5326 -45.5270  -0.0408   2.5248   4.0591   7.3987   7.5184

     occupation numbers 
     1.0000   1.0000   1.0000   0.0000   0.0000   0.0000   0.0000

          k = 0.2222 0.3333 0.4444 (   752 PWs)   bands (ev):

   -45.5304 -45.5285   0.7524   1.7016   4.7295   5.9391   8.0553

     occupation numbers 
     1.0000   1.0000   1.0000   0.0000   0.0000   0.0000   0.0000

          k = 0.2222 0.4444 0.4444 (   752 PWs)   bands (ev):

   -45.5297 -45.5285   1.4304   1.9079   4.2540   4.8208   8.4797

     occupation numbers 
     1.0000   1.0000   0.0000   0.0000   0.0000   0.0000   0.0000

          k = 0.3333 0.3333 0.3333 (   753 PWs)   bands (ev):

   -45.5317 -45.5271   0.5530   3.3032   3.3032   7.0998   7.4787

     occupation numbers 
     1.0000   1.0000   1.0000   0.0000   0.0000   0.0000   0.0000

          k = 0.3333 0.3333 0.4444 (   750 PWs)   bands (ev):

   -45.5295 -45.5281   1.3553   2.3144   4.3907   5.7846   7.1624

     occupation numbers 
     1.0000   1.0000   0.0000   0.0000   0.0000   0.0000   0.0000

          k = 0.3333 0.4444 0.4444 (   747 PWs)   bands (ev):

   -45.5287 -45.5277   2.1113   2.6873   4.1616   4.9520   6.8691

     occupation numbers 
     1.0000   1.0000   0.0000   0.0000   0.0000   0.0000   0.0000

          k = 0.4444 0.4444 0.4444 (   729 PWs)   bands (ev):

   -45.5269 -45.5261   2.9765   3.7766   3.7766   5.1735   5.1735

     occupation numbers 
     1.0000   1.0000   0.0000   0.0000   0.0000   0.0000   0.0000

     the Fermi energy is     0.9012 ev

!    total energy              =     -28.94227149 Ry
     Harris-Foulkes estimate   =     -28.94227154 Ry
     estimated scf accuracy    <       0.00000060 Ry

     The total energy is the sum of the following terms:

     one-electron contribution =     -19.38128069 Ry
     hartree contribution      =       7.30982665 Ry
     xc contribution           =      -6.75511809 Ry
     ewald contribution        =     -10.11562256 Ry
     smearing contrib. (-TS)   =      -0.00007680 Ry

     convergence has been achieved in   5 iterations

     Forces acting on atoms (cartesian axes, Ry/au):

     atom    1 type  1   force =     0.00000000    0.00000000    0.00000000
     atom    2 type  1   force =     0.00000000    0.00000000    0.00000000
     The non-local contrib.  to forces
     atom    1 type  1   force =     0.00000000    0.00000000    0.00000000
     atom    2 type  1   force =     0.00000000    0.00000000    0.00000000
     The ionic contribution  to forces
     atom    1 type  1   force =    -0.00000000   -0.00000000   -0.00000000
     atom    2 type  1   force =     0.00000000    0.00000000    0.00000000
     The local contribution  to forces
     atom    1 type  1   force =    -0.00000000   -0.00000000   -0.00000000
     atom    2 type  1   force =     0.00000000    0.00000000    0.00000000
     The core correction contribution to forces
     atom    1 type  1   force =     0.00000000    0.00000000    0.00000000
     atom    2 type  1   force =     0.00000000    0.00000000    0.00000000
     The Hubbard contrib.    to forces
     atom    1 type  1   force =     0.00000000    0.00000000    0.00000000
     atom    2 type  1   force =     0.00000000    0.00000000    0.00000000
     The SCF correction term to forces
     atom    1 type  1   force =     0.00000000   -0.00000000   -0.00000000
     atom    2 type  1   force =    -0.00000000    0.00000000   -0.00000000

     Total force =     0.000000     Total SCF correction =     0.000000


     Computing stress (Cartesian axis) and pressure

          total   stress  (Ry/bohr**3)                   (kbar)     P=   -5.71
  -0.00003883   0.00000000   0.00000000         -5.71      0.00      0.00
   0.00000000  -0.00003883   0.00000000          0.00     -5.71      0.00
   0.00000000   0.00000000  -0.00003883          0.00      0.00     -5.71

     kinetic stress (kbar)   2313.81      0.00      0.00
                                0.00   2313.81      0.00
                                0.00      0.00   2313.81

     local   stress (kbar)    339.27      0.00      0.00
                                0.00    339.27      0.00
                                0.00      0.00    339.27

     nonloc. stress (kbar)   -981.01      0.00      0.00
                                0.00   -981.01      0.00
                                0.00      0.00   -981.01

     hartree stress (kbar)   1319.91      0.00     -0.00
                                0.00   1319.91     -0.00
                               -0.00     -0.00   1319.91

     exc-cor stress (kbar)  -1171.15     -0.00      0.00
                               -0.00  -1171.15      0.00
                                0.00      0.00  -1171.15

     corecor stress (kbar)      0.00      0.00      0.00
                                0.00      0.00      0.00
                                0.00      0.00      0.00

     ewald   stress (kbar)  -1826.54      0.00     -0.00
                                0.00  -1826.54     -0.00
                               -0.00     -0.00  -1826.54

     hubbard stress (kbar)      0.00      0.00      0.00
                                0.00      0.00      0.00
                                0.00      0.00      0.00

     london  stress (kbar)      0.00      0.00      0.00
                                0.00      0.00      0.00
                                0.00      0.00      0.00

     DFT-D3  stress (kbar)      0.00      0.00      0.00
                                0.00      0.00      0.00
                                0.00      0.00      0.00

     XDM     stress (kbar)      0.00      0.00      0.00
                                0.00      0.00      0.00
                                0.00      0.00      0.00

     dft-nl  stress (kbar)      0.00      0.00      0.00
                                0.00      0.00      0.00
                                0.00      0.00      0.00

     TS-vdW  stress (kbar)      0.00      0.00      0.00
                                0.00      0.00      0.00
                                0.00      0.00      0.00



     BFGS Geometry Optimization

     number of scf cycles    =   1
     number of bfgs steps    =   0

     enthalpy new            =     -28.9422714863 Ry

     new trust radius        =       0.0031998254 bohr
     new conv_thr            =       0.0000010000 Ry

     new unit-cell volume =    270.77207 a.u.^3 (    40.12428 Ang^3 )
     density =      0.57451 g/cm^3

CELL_PARAMETERS (angstrom)
   3.423490192   0.000000000   0.000000000
   0.000000000   3.423490192   0.000000000
   0.000000000   0.000000000   3.423490192

ATOMIC_POSITIONS (angstrom)
Li       0.000000000   0.000000000   0.000000000
Li       1.711745096   1.711745096   1.711745096



     Writing output data file VLAB.save/
     NEW-OLD atomic charge density approx. for the potential
     extrapolated charge    5.98512, renormalised to    6.00000

     total cpu time spent up to now is        6.9 secs

     Self-consistent Calculation

     iteration #  1     ecut=    30.00 Ry     beta= 0.50
     Davidson diagonalization with overlap
     ethr =  1.00E-06,  avg # of iterations =  2.0

     total cpu time spent up to now is        7.1 secs

     total energy              =     -28.94230111 Ry
     Harris-Foulkes estimate   =     -28.95696503 Ry
     estimated scf accuracy    <       0.00000604 Ry

     iteration #  2     ecut=    30.00 Ry     beta= 0.50
     Davidson diagonalization with overlap
     ethr =  1.01E-07,  avg # of iterations =  3.0

     total cpu time spent up to now is        7.3 secs

     End of self-consistent calculation

          k = 0.0000 0.0000 0.0000 (   739 PWs)   bands (ev):

   -45.5268 -45.4923  -2.6147   6.5309   6.5309   6.5309   8.7946

     occupation numbers 
     1.0000   1.0000   1.0000   0.0000   0.0000   0.0000   0.0000

          k = 0.0000 0.0000 0.1112 (   743 PWs)   bands (ev):

   -45.5260 -45.4928  -2.4973   5.1910   6.6831   6.6831   8.9530

     occupation numbers 
     1.0000   1.0000   1.0000   0.0000   0.0000   0.0000   0.0000

          k = 0.0000 0.0000 0.2224 (   751 PWs)   bands (ev):

   -45.5218 -45.4967  -2.1430   3.3733   7.1387   7.1387   9.4279

     occupation numbers 
     1.0000   1.0000   1.0000   0.0000   0.0000   0.0000   0.0000

          k = 0.0000 0.0000 0.3337 (   767 PWs)   bands (ev):

   -45.5170 -45.5018  -1.5476   1.7561   7.8944   7.8944  10.2195

     occupation numbers 
     1.0000   1.0000   1.0000   0.0000   0.0000   0.0000   0.0000

          k = 0.0000 0.0000 0.4449 (   768 PWs)   bands (ev):

   -45.5114 -45.5066  -0.7040   0.3954   8.9427   8.9427  10.2676

     occupation numbers 
     1.0000   1.0000   1.0000   1.0000   0.0000   0.0000   0.0000

          k = 0.0000 0.1112 0.1112 (   750 PWs)   bands (ev):

   -45.5249 -45.4943  -2.3799   4.9262   5.8522   6.8349   9.8966

     occupation numbers 
     1.0000   1.0000   1.0000   0.0000   0.0000   0.0000   0.0000

          k = 0.0000 0.1112 0.2224 (   761 PWs)   bands (ev):

   -45.5216 -45.4977  -2.0261   3.4098   6.0466   7.2893  10.5697

     occupation numbers 
     1.0000   1.0000   1.0000   0.0000   0.0000   0.0000   0.0000

          k = 0.0000 0.1112 0.3337 (   756 PWs)   bands (ev):

   -45.5165 -45.5007  -1.4322   1.8420   6.7640   8.0423  10.6640

     occupation numbers 
     1.0000   1.0000   1.0000   0.0000   0.0000   0.0000   0.0000

          k = 0.0000 0.1112 0.4449 (   757 PWs)   bands (ev):

   -45.5113 -45.5052  -0.5922   0.4993   7.7931   9.0848   9.1040

     occupation numbers 
     1.0000   1.0000   1.0000   1.0000   0.0000   0.0000   0.0000

          k = 0.0000 0.2224 0.2224 (   758 PWs)   bands (ev):

   -45.5181 -45.4996  -1.6746   3.1395   5.0152   7.7393  10.6115

     occupation numbers 
     1.0000   1.0000   1.0000   0.0000   0.0000   0.0000   0.0000

          k = 0.0000 0.2224 0.3337 (   751 PWs)   bands (ev):

   -45.5144 -45.5013  -1.0870   2.0220   5.2752   8.4826   8.8993

     occupation numbers 
     1.0000   1.0000   1.0000   0.0000   0.0000   0.0000   0.0000

          k = 0.0000 0.2224 0.4449 (   753 PWs)   bands (ev):

   -45.5101 -45.5051  -0.2630   0.7893   6.1674   7.3986   9.5039

     occupation numbers 
     1.0000   1.0000   1.0000   1.0000   0.0000   0.0000   0.0000

          k = 0.0000 0.3337 0.3337 (   748 PWs)   bands (ev):

   -45.5108 -45.5035  -0.5178   1.9114   4.4987   7.2637   9.2031

     occupation numbers 
     1.0000   1.0000   1.0000   0.0000   0.0000   0.0000   0.0000

          k = 0.0000 0.3337 0.4449 (   759 PWs)   bands (ev):

   -45.5092 -45.5056   0.2560   1.1631   4.8580   5.8814  10.1678

     occupation numbers 
     1.0000   1.0000   1.0000   0.0000   0.0000   0.0000   0.0000

          k = 0.0000 0.4449 0.4449 (   760 PWs)   bands (ev):

   -45.5075 -45.5068   0.8734   1.2925   4.2739   4.7335  10.9634

     occupation numbers 
     1.0000   1.0000   0.9738   0.0000   0.0000   0.0000   0.0000

          k = 0.1112 0.1112 0.1112 (   754 PWs)   bands (ev):

   -45.5238 -45.4954  -2.2624   5.0810   5.0810   6.7039  11.1779

     occupation numbers 
     1.0000   1.0000   1.0000   0.0000   0.0000   0.0000   0.0000

          k = 0.1112 0.1112 0.2224 (   753 PWs)   bands (ev):

   -45.5201 -45.4977  -1.9089   3.4832   5.5449   7.0447  11.6425

     occupation numbers 
     1.0000   1.0000   1.0000   0.0000   0.0000   0.0000   0.0000

          k = 0.1112 0.1112 0.3337 (   752 PWs)   bands (ev):

   -45.5155 -45.5009  -1.3159   1.9371   6.3161   7.7205  10.4097

     occupation numbers 
     1.0000   1.0000   1.0000   0.0000   0.0000   0.0000   0.0000

          k = 0.1112 0.1112 0.4449 (   760 PWs)   bands (ev):

   -45.5109 -45.5057  -0.4786   0.6067   7.3910   8.6665   8.7615

     occupation numbers 
     1.0000   1.0000   1.0000   1.0000   0.0000   0.0000   0.0000

          k = 0.1112 0.2224 0.2224 (   756 PWs)   bands (ev):

   -45.5177 -45.4994  -1.5568   3.2953   4.7295   7.2863  10.6613

     occupation numbers 
     1.0000   1.0000   1.0000   0.0000   0.0000   0.0000   0.0000

          k = 0.1112 0.2224 0.3337 (   757 PWs)   bands (ev):

   -45.5140 -45.5022  -0.9686   2.1481   5.1247   7.9130   8.9210

     occupation numbers 
     1.0000   1.0000   1.0000   0.0000   0.0000   0.0000   0.0000

          k = 0.1112 0.2224 0.4449 (   756 PWs)   bands (ev):

   -45.5101 -45.5051  -0.1444   0.9084   6.0881   7.3730   8.8124

     occupation numbers 
     1.0000   1.0000   1.0000   0.5482   0.0000   0.0000   0.0000

          k = 0.1112 0.3337 0.3337 (   751 PWs)   bands (ev):

   -45.5109 -45.5033  -0.3958   2.0676   4.4199   7.3092   8.5109

     occupation numbers 
     1.0000   1.0000   1.0000   0.0000   0.0000   0.0000   0.0000

          k = 0.1112 0.3337 0.4449 (   752 PWs)   bands (ev):

   -45.5080 -45.5055   0.3840   1.3029   4.8452   5.9098   9.3723

     occupation numbers 
     1.0000   1.0000   1.0000   0.0000   0.0000   0.0000   0.0000

          k = 0.1112 0.4449 0.4449 (   752 PWs)   bands (ev):

   -45.5068 -45.5061   1.0164   1.4489   4.2779   4.7603  10.1711

     occupation numbers 
     1.0000   1.0000   0.0000   0.0000   0.0000   0.0000   0.0000

          k = 0.2224 0.2224 0.2224 (   745 PWs)   bands (ev):

   -45.5145 -45.5003  -1.2033   3.7624   3.7624   7.0593  10.6529

     occupation numbers 
     1.0000   1.0000   1.0000   0.0000   0.0000   0.0000   0.0000

          k = 0.2224 0.2224 0.3337 (   751 PWs)   bands (ev):

   -45.5121 -45.5024  -0.6149   2.4743   4.5397   7.4001   8.6977

     occupation numbers 
     1.0000   1.0000   1.0000   0.0000   0.0000   0.0000   0.0000

          k = 0.2224 0.2224 0.4449 (   757 PWs)   bands (ev):

   -45.5092 -45.5053   0.2056   1.2473   5.6250   7.0141   8.0671

     occupation numbers 
     1.0000   1.0000   1.0000   0.0000   0.0000   0.0000   0.0000

          k = 0.2224 0.3337 0.3337 (   751 PWs)   bands (ev):

   -45.5095 -45.5038  -0.0324   2.5361   4.0742   7.4203   7.5444

     occupation numbers 
     1.0000   1.0000   1.0000   0.0000   0.0000   0.0000   0.0000

          k = 0.2224 0.3337 0.4449 (   752 PWs)   bands (ev):

   -45.5073 -45.5054   0.7616   1.7119   4.7462   5.9580   8.0813

     occupation numbers 
     1.0000   1.0000   1.0000   0.0000   0.0000   0.0000   0.0000

          k = 0.2224 0.4449 0.4449 (   752 PWs)   bands (ev):

   -45.5064 -45.5055   1.4401   1.9179   4.2711   4.8386   8.5046

     occupation numbers 
     1.0000   1.0000   0.0000   0.0000   0.0000   0.0000   0.0000

          k = 0.3337 0.3337 0.3337 (   753 PWs)   bands (ev):

   -45.5085 -45.5039   0.5621   3.3159   3.3159   7.1254   7.4998

     occupation numbers 
     1.0000   1.0000   1.0000   0.0000   0.0000   0.0000   0.0000

          k = 0.3337 0.3337 0.4449 (   750 PWs)   bands (ev):

   -45.5063 -45.5050   1.3653   2.3257   4.4057   5.8023   7.1866

     occupation numbers 
     1.0000   1.0000   0.0000   0.0000   0.0000   0.0000   0.0000

          k = 0.3337 0.4449 0.4449 (   747 PWs)   bands (ev):

   -45.5054 -45.5046   2.1223   2.6988   4.1768   4.9688   6.8892

     occupation numbers 
     1.0000   1.0000   0.0000   0.0000   0.0000   0.0000   0.0000

          k = 0.4449 0.4449 0.4449 (   729 PWs)   bands (ev):

   -45.5036 -45.5031   2.9890   3.7904   3.7904   5.1900   5.1900

     occupation numbers 
     1.0000   1.0000   0.0000   0.0000   0.0000   0.0000   0.0000

     the Fermi energy is     0.9107 ev

!    total energy              =     -28.94230909 Ry
     Harris-Foulkes estimate   =     -28.94230909 Ry
     estimated scf accuracy    <       0.00000005 Ry

     The total energy is the sum of the following terms:

     one-electron contribution =     -19.36640036 Ry
     hartree contribution      =       7.30557137 Ry
     xc contribution           =      -6.75595045 Ry
     ewald contribution        =     -10.12545307 Ry
     smearing contrib. (-TS)   =      -0.00007659 Ry

     convergence has been achieved in   2 iterations

     Forces acting on atoms (cartesian axes, Ry/au):

     atom    1 type  1   force =     0.00000000    0.00000000    0.00000000
     atom    2 type  1   force =     0.00000000    0.00000000    0.00000000
     The non-local contrib.  to forces
     atom    1 type  1   force =     0.00000000    0.00000000    0.00000000
     atom    2 type  1   force =     0.00000000    0.00000000    0.00000000
     The ionic contribution  to forces
     atom    1 type  1   force =    -0.00000000   -0.00000000   -0.00000000
     atom    2 type  1   force =     0.00000000    0.00000000    0.00000000
     The local contribution  to forces
     atom    1 type  1   force =    -0.00000000   -0.00000000   -0.00000000
     atom    2 type  1   force =     0.00000000    0.00000000    0.00000000
     The core correction contribution to forces
     atom    1 type  1   force =     0.00000000    0.00000000    0.00000000
     atom    2 type  1   force =     0.00000000    0.00000000    0.00000000
     The Hubbard contrib.    to forces
     atom    1 type  1   force =     0.00000000    0.00000000    0.00000000
     atom    2 type  1   force =     0.00000000    0.00000000    0.00000000
     The SCF correction term to forces
     atom    1 type  1   force =     0.00000000    0.00000000    0.00000000
     atom    2 type  1   force =    -0.00000000    0.00000000    0.00000000

     Total force =     0.000000     Total SCF correction =     0.000000


     Computing stress (Cartesian axis) and pressure

          total   stress  (Ry/bohr**3)                   (kbar)     P=   -6.55
  -0.00004449   0.00000000   0.00000000         -6.55      0.00      0.00
   0.00000000  -0.00004449   0.00000000          0.00     -6.55      0.00
   0.00000000   0.00000000  -0.00004449          0.00      0.00     -6.55

     kinetic stress (kbar)   2321.07      0.00      0.00
                                0.00   2321.07      0.00
                                0.00      0.00   2321.07

     local   stress (kbar)    342.74     -0.00      0.00
                               -0.00    342.74      0.00
                                0.00      0.00    342.74

     nonloc. stress (kbar)   -984.99      0.00      0.00
                                0.00   -984.99      0.00
                                0.00      0.00   -984.99

     hartree stress (kbar)   1322.99      0.00     -0.00
                                0.00   1322.99     -0.00
                               -0.00     -0.00   1322.99

     exc-cor stress (kbar)  -1174.71      0.00     -0.00
                                0.00  -1174.71     -0.00
                               -0.00     -0.00  -1174.71

     corecor stress (kbar)      0.00      0.00      0.00
                                0.00      0.00      0.00
                                0.00      0.00      0.00

     ewald   stress (kbar)  -1833.65     -0.00     -0.00
                               -0.00  -1833.65     -0.00
                               -0.00     -0.00  -1833.65

     hubbard stress (kbar)      0.00      0.00      0.00
                                0.00      0.00      0.00
                                0.00      0.00      0.00

     london  stress (kbar)      0.00      0.00      0.00
                                0.00      0.00      0.00
                                0.00      0.00      0.00

     DFT-D3  stress (kbar)      0.00      0.00      0.00
                                0.00      0.00      0.00
                                0.00      0.00      0.00

     XDM     stress (kbar)      0.00      0.00      0.00
                                0.00      0.00      0.00
                                0.00      0.00      0.00

     dft-nl  stress (kbar)      0.00      0.00      0.00
                                0.00      0.00      0.00
                                0.00      0.00      0.00

     TS-vdW  stress (kbar)      0.00      0.00      0.00
                                0.00      0.00      0.00
                                0.00      0.00      0.00



     number of scf cycles    =   2
     number of bfgs steps    =   1

     enthalpy old            =     -28.9422714863 Ry
     enthalpy new            =     -28.9423090919 Ry

     CASE: enthalpy_new < enthalpy_old


     WARNING: bfgs curvature condition failed, Theta= 0.700
     uphill step: resetting bfgs history

     new trust radius        =       0.0036607989 bohr
     new conv_thr            =       0.0000000100 Ry

     new unit-cell volume =    269.86949 a.u.^3 (    39.99053 Ang^3 )
     density =      0.57643 g/cm^3

CELL_PARAMETERS (angstrom)
   3.419682051   0.000000000   0.000000000
   0.000000000   3.419682051   0.000000000
   0.000000000   0.000000000   3.419682051

ATOMIC_POSITIONS (angstrom)
Li       0.000000000   0.000000000   0.000000000
Li       1.709841026   1.709841026   1.709841026



     Writing output data file VLAB.save/
     NEW-OLD atomic charge density approx. for the potential
     extrapolated charge    5.98295, renormalised to    6.00000

     total cpu time spent up to now is        7.4 secs

     Self-consistent Calculation

     iteration #  1     ecut=    30.00 Ry     beta= 0.50
     Davidson diagonalization with overlap
     ethr =  1.00E-06,  avg # of iterations =  2.0

     total cpu time spent up to now is        7.6 secs

     total energy              =     -28.94233751 Ry
     Harris-Foulkes estimate   =     -28.95910698 Ry
     estimated scf accuracy    <       0.00000800 Ry

     iteration #  2     ecut=    30.00 Ry     beta= 0.50
     Davidson diagonalization with overlap
     ethr =  1.33E-07,  avg # of iterations =  3.0

     total cpu time spent up to now is        7.8 secs

     total energy              =     -28.94234789 Ry
     Harris-Foulkes estimate   =     -28.94234788 Ry
     estimated scf accuracy    <       0.00000006 Ry

     iteration #  3     ecut=    30.00 Ry     beta= 0.50
     Davidson diagonalization with overlap
     ethr =  9.93E-10,  avg # of iterations =  1.4

     total cpu time spent up to now is        7.9 secs

     total energy              =     -28.94234790 Ry
     Harris-Foulkes estimate   =     -28.94234789 Ry
     estimated scf accuracy    <       0.00000001 Ry

     iteration #  4     ecut=    30.00 Ry     beta= 0.50
     Davidson diagonalization with overlap
     ethr =  2.45E-10,  avg # of iterations =  1.6

     total cpu time spent up to now is        8.0 secs

     End of self-consistent calculation

          k = 0.0000 0.0000 0.0000 (   739 PWs)   bands (ev):

   -45.5099 -45.4750  -2.6082   6.5541   6.5541   6.5541   8.8202

     occupation numbers 
     1.0000   1.0000   1.0000   0.0000   0.0000   0.0000   0.0000

          k = 0.0000 0.0000 0.1113 (   743 PWs)   bands (ev):

   -45.5092 -45.4756  -2.4906   5.2108   6.7066   6.7066   8.9789

     occupation numbers 
     1.0000   1.0000   1.0000   0.0000   0.0000   0.0000   0.0000

          k = 0.0000 0.0000 0.2227 (   751 PWs)   bands (ev):

   -45.5049 -45.4794  -2.1360   3.3893   7.1633   7.1633   9.4549

     occupation numbers 
     1.0000   1.0000   1.0000   0.0000   0.0000   0.0000   0.0000

          k = 0.0000 0.0000 0.3340 (   767 PWs)   bands (ev):

   -45.5000 -45.4846  -1.5398   1.7691   7.9207   7.9207  10.2483

     occupation numbers 
     1.0000   1.0000   1.0000   0.0000   0.0000   0.0000   0.0000

          k = 0.0000 0.0000 0.4454 (   768 PWs)   bands (ev):

   -45.4944 -45.4895  -0.6950   0.4061   8.9715   8.9715  10.2996

     occupation numbers 
     1.0000   1.0000   1.0000   1.0000   0.0000   0.0000   0.0000

          k = 0.0000 0.1113 0.1113 (   750 PWs)   bands (ev):

   -45.5080 -45.4770  -2.3731   4.9449   5.8741   6.8588   9.9255

     occupation numbers 
     1.0000   1.0000   1.0000   0.0000   0.0000   0.0000   0.0000

          k = 0.0000 0.1113 0.2227 (   761 PWs)   bands (ev):

   -45.5046 -45.4804  -2.0190   3.4257   6.0688   7.3142  10.6005

     occupation numbers 
     1.0000   1.0000   1.0000   0.0000   0.0000   0.0000   0.0000

          k = 0.0000 0.1113 0.3340 (   756 PWs)   bands (ev):

   -45.4995 -45.4835  -1.4242   1.8550   6.7879   8.0690  10.6971

     occupation numbers 
     1.0000   1.0000   1.0000   0.0000   0.0000   0.0000   0.0000

          k = 0.0000 0.1113 0.4454 (   757 PWs)   bands (ev):

   -45.4942 -45.4880  -0.5831   0.5101   7.8194   9.1140   9.1334

     occupation numbers 
     1.0000   1.0000   1.0000   1.0000   0.0000   0.0000   0.0000

          k = 0.0000 0.2227 0.2227 (   758 PWs)   bands (ev):

   -45.5011 -45.4823  -1.6670   3.1541   5.0364   7.7653  10.6449

     occupation numbers 
     1.0000   1.0000   1.0000   0.0000   0.0000   0.0000   0.0000

          k = 0.0000 0.2227 0.3340 (   751 PWs)   bands (ev):

   -45.4974 -45.4841  -1.0786   2.0348   5.2969   8.5104   8.9288

     occupation numbers 
     1.0000   1.0000   1.0000   0.0000   0.0000   0.0000   0.0000

          k = 0.0000 0.2227 0.4454 (   753 PWs)   bands (ev):

   -45.4930 -45.4879  -0.2536   0.8002   6.1909   7.4249   9.5341

     occupation numbers 
     1.0000   1.0000   1.0000   1.0000   0.0000   0.0000   0.0000

          k = 0.0000 0.3340 0.3340 (   748 PWs)   bands (ev):

   -45.4938 -45.4863  -0.5088   1.9231   4.5202   7.2901   9.2325

     occupation numbers 
     1.0000   1.0000   1.0000   0.0000   0.0000   0.0000   0.0000

          k = 0.0000 0.3340 0.4454 (   759 PWs)   bands (ev):

   -45.4920 -45.4885   0.2659   1.1739   4.8801   5.9052  10.1997

     occupation numbers 
     1.0000   1.0000   1.0000   0.0000   0.0000   0.0000   0.0000

          k = 0.0000 0.4454 0.4454 (   760 PWs)   bands (ev):

   -45.4904 -45.4896   0.8835   1.3028   4.2959   4.7559  10.9974

     occupation numbers 
     1.0000   1.0000   0.9766   0.0000   0.0000   0.0000   0.0000

          k = 0.1113 0.1113 0.1113 (   754 PWs)   bands (ev):

   -45.5068 -45.4781  -2.2555   5.1001   5.1001   6.7290  11.2097

     occupation numbers 
     1.0000   1.0000   1.0000   0.0000   0.0000   0.0000   0.0000

          k = 0.1113 0.1113 0.2227 (   753 PWs)   bands (ev):

   -45.5031 -45.4804  -1.9016   3.4991   5.5651   7.0709  11.6754

     occupation numbers 
     1.0000   1.0000   1.0000   0.0000   0.0000   0.0000   0.0000

          k = 0.1113 0.1113 0.3340 (   752 PWs)   bands (ev):

   -45.4985 -45.4837  -1.3078   1.9502   6.3381   7.7483  10.4412

     occupation numbers 
     1.0000   1.0000   1.0000   0.0000   0.0000   0.0000   0.0000

          k = 0.1113 0.1113 0.4454 (   760 PWs)   bands (ev):

   -45.4938 -45.4886  -0.4694   0.6176   7.4154   8.6966   8.7890

     occupation numbers 
     1.0000   1.0000   1.0000   1.0000   0.0000   0.0000   0.0000

          k = 0.1113 0.2227 0.2227 (   756 PWs)   bands (ev):

   -45.5007 -45.4822  -1.5490   3.3102   4.7488   7.3136  10.6943

     occupation numbers 
     1.0000   1.0000   1.0000   0.0000   0.0000   0.0000   0.0000

          k = 0.1113 0.2227 0.3340 (   757 PWs)   bands (ev):

   -45.4970 -45.4850  -0.9600   2.1611   5.1450   7.9418   8.9500

     occupation numbers 
     1.0000   1.0000   1.0000   0.0000   0.0000   0.0000   0.0000

          k = 0.1113 0.2227 0.4454 (   756 PWs)   bands (ev):

   -45.4930 -45.4880  -0.1347   0.9195   6.1106   7.3984   8.8430

     occupation numbers 
     1.0000   1.0000   1.0000   0.5475   0.0000   0.0000   0.0000

          k = 0.1113 0.3340 0.3340 (   751 PWs)   bands (ev):

   -45.4939 -45.4861  -0.3866   2.0797   4.4403   7.3353   8.5409

     occupation numbers 
     1.0000   1.0000   1.0000   0.0000   0.0000   0.0000   0.0000

          k = 0.1113 0.3340 0.4454 (   752 PWs)   bands (ev):

   -45.4909 -45.4884   0.3941   1.3140   4.8666   5.9332   9.4040

     occupation numbers 
     1.0000   1.0000   1.0000   0.0000   0.0000   0.0000   0.0000

          k = 0.1113 0.4454 0.4454 (   752 PWs)   bands (ev):

   -45.4896 -45.4889   1.0269   1.4596   4.2994   4.7822  10.2040

     occupation numbers 
     1.0000   1.0000   0.0000   0.0000   0.0000   0.0000   0.0000

          k = 0.2227 0.2227 0.2227 (   745 PWs)   bands (ev):

   -45.4975 -45.4830  -1.1951   3.7783   3.7783   7.0885  10.6847

     occupation numbers 
     1.0000   1.0000   1.0000   0.0000   0.0000   0.0000   0.0000

          k = 0.2227 0.2227 0.3340 (   751 PWs)   bands (ev):

   -45.4950 -45.4852  -0.6059   2.4878   4.5574   7.4303   8.7250

     occupation numbers 
     1.0000   1.0000   1.0000   0.0000   0.0000   0.0000   0.0000

          k = 0.2227 0.2227 0.4454 (   757 PWs)   bands (ev):

   -45.4921 -45.4882   0.2157   1.2589   5.6452   7.0374   8.0984

     occupation numbers 
     1.0000   1.0000   1.0000   0.0000   0.0000   0.0000   0.0000

          k = 0.2227 0.3340 0.3340 (   751 PWs)   bands (ev):

   -45.4924 -45.4866  -0.0227   2.5492   4.0918   7.4454   7.5750

     occupation numbers 
     1.0000   1.0000   1.0000   0.0000   0.0000   0.0000   0.0000

          k = 0.2227 0.3340 0.4454 (   752 PWs)   bands (ev):

   -45.4901 -45.4882   0.7724   1.7238   4.7655   5.9801   8.1117

     occupation numbers 
     1.0000   1.0000   1.0000   0.0000   0.0000   0.0000   0.0000

          k = 0.2227 0.4454 0.4454 (   752 PWs)   bands (ev):

   -45.4893 -45.4883   1.4515   1.9296   4.2910   4.8594   8.5335

     occupation numbers 
     1.0000   1.0000   0.0000   0.0000   0.0000   0.0000   0.0000

          k = 0.3340 0.3340 0.3340 (   753 PWs)   bands (ev):

   -45.4914 -45.4867   0.5727   3.3308   3.3308   7.1556   7.5242

     occupation numbers 
     1.0000   1.0000   1.0000   0.0000   0.0000   0.0000   0.0000

          k = 0.3340 0.3340 0.4454 (   750 PWs)   bands (ev):

   -45.4892 -45.4878   1.3771   2.3388   4.4230   5.8228   7.2148

     occupation numbers 
     1.0000   1.0000   0.0000   0.0000   0.0000   0.0000   0.0000

          k = 0.3340 0.4454 0.4454 (   747 PWs)   bands (ev):

   -45.4883 -45.4875   2.1352   2.7123   4.1946   4.9882   6.9126

     occupation numbers 
     1.0000   1.0000   0.0000   0.0000   0.0000   0.0000   0.0000

          k = 0.4454 0.4454 0.4454 (   729 PWs)   bands (ev):

   -45.4865 -45.4860   3.0035   3.8063   3.8063   5.2091   5.2091

     occupation numbers 
     1.0000   1.0000   0.0000   0.0000   0.0000   0.0000   0.0000

     the Fermi energy is     0.9218 ev

!    total energy              =     -28.94234790 Ry
     Harris-Foulkes estimate   =     -28.94234790 Ry
     estimated scf accuracy    <          3.1E-11 Ry

     The total energy is the sum of the following terms:

     one-electron contribution =     -19.34931853 Ry
     hartree contribution      =       7.30071939 Ry
     xc contribution           =      -6.75694369 Ry
     ewald contribution        =     -10.13672872 Ry
     smearing contrib. (-TS)   =      -0.00007634 Ry

     convergence has been achieved in   4 iterations

     Forces acting on atoms (cartesian axes, Ry/au):

     atom    1 type  1   force =     0.00000000    0.00000000   -0.00000000
     atom    2 type  1   force =     0.00000000    0.00000000    0.00000000
     The non-local contrib.  to forces
     atom    1 type  1   force =     0.00000000    0.00000000    0.00000000
     atom    2 type  1   force =     0.00000000    0.00000000    0.00000000
     The ionic contribution  to forces
     atom    1 type  1   force =     0.00000000    0.00000000    0.00000000
     atom    2 type  1   force =    -0.00000000   -0.00000000   -0.00000000
     The local contribution  to forces
     atom    1 type  1   force =    -0.00000000   -0.00000000    0.00000000
     atom    2 type  1   force =     0.00000000    0.00000000    0.00000000
     The core correction contribution to forces
     atom    1 type  1   force =     0.00000000    0.00000000    0.00000000
     atom    2 type  1   force =     0.00000000    0.00000000    0.00000000
     The Hubbard contrib.    to forces
     atom    1 type  1   force =     0.00000000    0.00000000    0.00000000
     atom    2 type  1   force =     0.00000000    0.00000000    0.00000000
     The SCF correction term to forces
     atom    1 type  1   force =    -0.00000000    0.00000000    0.00000000
     atom    2 type  1   force =    -0.00000000    0.00000000    0.00000000

     Total force =     0.000000     Total SCF correction =     0.000000


     Computing stress (Cartesian axis) and pressure

          total   stress  (Ry/bohr**3)                   (kbar)     P=   -5.99
  -0.00004072   0.00000000   0.00000000         -5.99      0.00      0.00
   0.00000000  -0.00004072   0.00000000          0.00     -5.99      0.00
   0.00000000   0.00000000  -0.00004072          0.00      0.00     -5.99

     kinetic stress (kbar)   2329.13      0.00      0.00
                                0.00   2329.13      0.00
                                0.00      0.00   2329.13

     local   stress (kbar)    346.77      0.00     -0.00
                                0.00    346.77      0.00
                               -0.00      0.00    346.77

     nonloc. stress (kbar)   -987.79      0.00      0.00
                                0.00   -987.79      0.00
                                0.00      0.00   -987.79

     hartree stress (kbar)   1326.53      0.00      0.00
                                0.00   1326.53     -0.00
                                0.00     -0.00   1326.53

     exc-cor stress (kbar)  -1178.80     -0.00     -0.00
                               -0.00  -1178.80      0.00
                               -0.00      0.00  -1178.80

     corecor stress (kbar)      0.00      0.00      0.00
                                0.00      0.00      0.00
                                0.00      0.00      0.00

     ewald   stress (kbar)  -1841.83      0.00     -0.00
                                0.00  -1841.83     -0.00
                               -0.00     -0.00  -1841.83

     hubbard stress (kbar)      0.00      0.00      0.00
                                0.00      0.00      0.00
                                0.00      0.00      0.00

     london  stress (kbar)      0.00      0.00      0.00
                                0.00      0.00      0.00
                                0.00      0.00      0.00

     DFT-D3  stress (kbar)      0.00      0.00      0.00
                                0.00      0.00      0.00
                                0.00      0.00      0.00

     XDM     stress (kbar)      0.00      0.00      0.00
                                0.00      0.00      0.00
                                0.00      0.00      0.00

     dft-nl  stress (kbar)      0.00      0.00      0.00
                                0.00      0.00      0.00
                                0.00      0.00      0.00

     TS-vdW  stress (kbar)      0.00      0.00      0.00
                                0.00      0.00      0.00
                                0.00      0.00      0.00



     number of scf cycles    =   3
     number of bfgs steps    =   2

     enthalpy old            =     -28.9423090919 Ry
     enthalpy new            =     -28.9423478978 Ry

     CASE: enthalpy_new < enthalpy_old


     WARNING: bfgs curvature condition failed, Theta= 0.876
     new trust radius        =       0.0054881434 bohr
     new conv_thr            =       0.0000000100 Ry

     new unit-cell volume =    268.51939 a.u.^3 (    39.79047 Ang^3 )
     density =      0.57932 g/cm^3

CELL_PARAMETERS (angstrom)
   3.413969839   0.000000000   0.000000000
   0.000000000   3.413969839   0.000000000
   0.000000000   0.000000000   3.413969839

ATOMIC_POSITIONS (angstrom)
Li       0.000000000   0.000000000  -0.000000000
Li       1.706984920   1.706984920   1.706984920



     Writing output data file VLAB.save/
     NEW-OLD atomic charge density approx. for the potential
     extrapolated charge    5.97436, renormalised to    6.00000

     total cpu time spent up to now is        8.1 secs

     Self-consistent Calculation

     iteration #  1     ecut=    30.00 Ry     beta= 0.50
     Davidson diagonalization with overlap
     ethr =  1.00E-06,  avg # of iterations =  2.3

     total cpu time spent up to now is        8.2 secs

     total energy              =     -28.94237463 Ry
     Harris-Foulkes estimate   =     -28.96748467 Ry
     estimated scf accuracy    <       0.00001821 Ry

     iteration #  2     ecut=    30.00 Ry     beta= 0.50
     Davidson diagonalization with overlap
     ethr =  3.04E-07,  avg # of iterations =  3.0

     total cpu time spent up to now is        8.4 secs

     total energy              =     -28.94239803 Ry
     Harris-Foulkes estimate   =     -28.94239802 Ry
     estimated scf accuracy    <       0.00000013 Ry

     iteration #  3     ecut=    30.00 Ry     beta= 0.50
     Davidson diagonalization with overlap
     ethr =  2.25E-09,  avg # of iterations =  1.4

     total cpu time spent up to now is        8.6 secs

     total energy              =     -28.94239806 Ry
     Harris-Foulkes estimate   =     -28.94239805 Ry
     estimated scf accuracy    <       0.00000003 Ry

     iteration #  4     ecut=    30.00 Ry     beta= 0.50
     Davidson diagonalization with overlap
     ethr =  5.54E-10,  avg # of iterations =  1.4

     total cpu time spent up to now is        8.7 secs

     End of self-consistent calculation

          k = 0.0000 0.0000 0.0000 (   739 PWs)   bands (ev):

   -45.4857 -45.4501  -2.5989   6.5883   6.5883   6.5883   8.8586

     occupation numbers 
     1.0000   1.0000   1.0000   0.0000   0.0000   0.0000   0.0000

          k = 0.0000 0.0000 0.1115 (   743 PWs)   bands (ev):

   -45.4849 -45.4507  -2.4811   5.2400   6.7414   6.7414   9.0178

     occupation numbers 
     1.0000   1.0000   1.0000   0.0000   0.0000   0.0000   0.0000

          k = 0.0000 0.0000 0.2231 (   751 PWs)   bands (ev):

   -45.4805 -45.4545  -2.1258   3.4129   7.1996   7.1996   9.4954

     occupation numbers 
     1.0000   1.0000   1.0000   0.0000   0.0000   0.0000   0.0000

          k = 0.0000 0.0000 0.3346 (   767 PWs)   bands (ev):

   -45.4756 -45.4597  -1.5285   1.7883   7.9597   7.9597  10.2914

     occupation numbers 
     1.0000   1.0000   1.0000   0.0000   0.0000   0.0000   0.0000

          k = 0.0000 0.0000 0.4461 (   768 PWs)   bands (ev):

   -45.4698 -45.4647  -0.6819   0.4218   9.0141   9.0141  10.3469

     occupation numbers 
     1.0000   1.0000   1.0000   1.0000   0.0000   0.0000   0.0000

          k = 0.0000 0.1115 0.1115 (   750 PWs)   bands (ev):

   -45.4837 -45.4522  -2.3633   4.9726   5.9064   6.8941   9.9689

     occupation numbers 
     1.0000   1.0000   1.0000   0.0000   0.0000   0.0000   0.0000

          k = 0.0000 0.1115 0.2231 (   761 PWs)   bands (ev):

   -45.4802 -45.4555  -2.0086   3.4490   6.1018   7.3511  10.6466

     occupation numbers 
     1.0000   1.0000   1.0000   0.0000   0.0000   0.0000   0.0000

          k = 0.0000 0.1115 0.3346 (   756 PWs)   bands (ev):

   -45.4751 -45.4587  -1.4127   1.8741   6.8232   8.1084  10.7463

     occupation numbers 
     1.0000   1.0000   1.0000   0.0000   0.0000   0.0000   0.0000

          k = 0.0000 0.1115 0.4461 (   757 PWs)   bands (ev):

   -45.4696 -45.4633  -0.5698   0.5259   7.8583   9.1571   9.1770

     occupation numbers 
     1.0000   1.0000   1.0000   1.0000   0.0000   0.0000   0.0000

          k = 0.0000 0.2231 0.2231 (   758 PWs)   bands (ev):

   -45.4767 -45.4575  -1.6559   3.1754   5.0676   7.8037  10.6946

     occupation numbers 
     1.0000   1.0000   1.0000   0.0000   0.0000   0.0000   0.0000

          k = 0.0000 0.2231 0.3346 (   751 PWs)   bands (ev):

   -45.4729 -45.4594  -1.0665   2.0535   5.3291   8.5514   8.9727

     occupation numbers 
     1.0000   1.0000   1.0000   0.0000   0.0000   0.0000   0.0000

          k = 0.0000 0.2231 0.4461 (   753 PWs)   bands (ev):

   -45.4684 -45.4632  -0.2398   0.8162   6.2259   7.4638   9.5788

     occupation numbers 
     1.0000   1.0000   1.0000   1.0000   0.0000   0.0000   0.0000

          k = 0.0000 0.3346 0.3346 (   748 PWs)   bands (ev):

   -45.4693 -45.4616  -0.4957   1.9402   4.5519   7.3293   9.2762

     occupation numbers 
     1.0000   1.0000   1.0000   0.0000   0.0000   0.0000   0.0000

          k = 0.0000 0.3346 0.4461 (   759 PWs)   bands (ev):

   -45.4674 -45.4638   0.2803   1.1897   4.9129   5.9405  10.2469

     occupation numbers 
     1.0000   1.0000   1.0000   0.0000   0.0000   0.0000   0.0000

          k = 0.0000 0.4461 0.4461 (   760 PWs)   bands (ev):

   -45.4657 -45.4649   0.8984   1.3178   4.3285   4.7890  11.0479

     occupation numbers 
     1.0000   1.0000   0.9804   0.0000   0.0000   0.0000   0.0000

          k = 0.1115 0.1115 0.1115 (   754 PWs)   bands (ev):

   -45.4825 -45.4532  -2.2456   5.1283   5.1283   6.7660  11.2572

     occupation numbers 
     1.0000   1.0000   1.0000   0.0000   0.0000   0.0000   0.0000

          k = 0.1115 0.1115 0.2231 (   753 PWs)   bands (ev):

   -45.4788 -45.4556  -1.8910   3.5224   5.5949   7.1097  11.7245

     occupation numbers 
     1.0000   1.0000   1.0000   0.0000   0.0000   0.0000   0.0000

          k = 0.1115 0.1115 0.3346 (   752 PWs)   bands (ev):

[...]

     Dense  grid:    10779 G-vectors     FFT dimensions: (  27,  27,  27)

     Smooth grid:     5743 G-vectors     FFT dimensions: (  24,  24,  24)

     Dynamical RAM for                 wfc:       0.00 MB

     Dynamical RAM for     wfc (w. buffer):       0.06 MB

     Dynamical RAM for           str. fact:       0.00 MB

     Dynamical RAM for           local pot:       0.00 MB

     Dynamical RAM for          nlocal pot:       0.00 MB

     Dynamical RAM for                qrad:       0.95 MB

     Dynamical RAM for          rho,v,vnew:       0.03 MB

     Dynamical RAM for               rhoin:       0.01 MB

     Dynamical RAM for            rho*nmix:       0.06 MB

     Dynamical RAM for           G-vectors:       0.01 MB

     Dynamical RAM for          h,s,v(r/c):       0.00 MB

     Dynamical RAM for          <psi|beta>:       0.00 MB

     Dynamical RAM for                 psi:       0.01 MB

     Dynamical RAM for                hpsi:       0.01 MB

     Dynamical RAM for                spsi:       0.01 MB

     Dynamical RAM for      wfcinit/wfcrot:       0.00 MB

     Dynamical RAM for           addusdens:       0.19 MB

     Dynamical RAM for          addusforce:       0.20 MB

     Dynamical RAM for         addusstress:       0.20 MB

     Estimated static dynamical RAM per process >       1.16 MB

     Estimated max dynamical RAM per process >       1.36 MB

     Estimated total dynamical RAM >      65.39 MB
     Message from routine sym_rho_init:
     some processors have no G-vectors for symmetrization

     Initial potential from superposition of free atoms

     starting charge    5.09851, renormalised to    6.00000
     Starting wfcs are random

     total cpu time spent up to now is       10.9 secs

     Self-consistent Calculation

     iteration #  1     ecut=    30.00 Ry     beta= 0.50
     Davidson diagonalization with overlap
     c_bands:  1 eigenvalues not converged
     c_bands:  1 eigenvalues not converged
     c_bands:  1 eigenvalues not converged
     c_bands:  1 eigenvalues not converged
     c_bands:  1 eigenvalues not converged
     c_bands:  1 eigenvalues not converged
     c_bands:  1 eigenvalues not converged
     c_bands:  1 eigenvalues not converged
     ethr =  1.00E-06,  avg # of iterations = 17.9

     total cpu time spent up to now is       11.9 secs

     total energy              =     -28.97184057 Ry
     Harris-Foulkes estimate   =     -29.17018390 Ry
     estimated scf accuracy    <       0.33290966 Ry

     iteration #  2     ecut=    30.00 Ry     beta= 0.50
     Davidson diagonalization with overlap
     ethr =  5.55E-03,  avg # of iterations =  1.0

     total cpu time spent up to now is       12.0 secs

     total energy              =     -28.93241229 Ry
     Harris-Foulkes estimate   =     -28.98115951 Ry
     estimated scf accuracy    <       0.06260034 Ry

     iteration #  3     ecut=    30.00 Ry     beta= 0.50
     Davidson diagonalization with overlap
     ethr =  1.04E-03,  avg # of iterations =  2.0

     total cpu time spent up to now is       12.2 secs

     total energy              =     -28.94180204 Ry
     Harris-Foulkes estimate   =     -28.94180776 Ry
     estimated scf accuracy    <       0.00022871 Ry

     iteration #  4     ecut=    30.00 Ry     beta= 0.50
     Davidson diagonalization with overlap
     ethr =  3.81E-06,  avg # of iterations =  3.5

     total cpu time spent up to now is       12.4 secs

     total energy              =     -28.94201012 Ry
     Harris-Foulkes estimate   =     -28.94202261 Ry
     estimated scf accuracy    <       0.00003053 Ry

     iteration #  5     ecut=    30.00 Ry     beta= 0.50
     Davidson diagonalization with overlap
     ethr =  5.09E-07,  avg # of iterations =  2.0

     total cpu time spent up to now is       12.6 secs

     total energy              =     -28.94201360 Ry
     Harris-Foulkes estimate   =     -28.94201443 Ry
     estimated scf accuracy    <       0.00000156 Ry

     iteration #  6     ecut=    30.00 Ry     beta= 0.50
     Davidson diagonalization with overlap
     ethr =  2.60E-08,  avg # of iterations =  1.5

     total cpu time spent up to now is       12.7 secs

     End of self-consistent calculation

          k = 0.0000 0.0000 0.0000 (   739 PWs)   bands (ev):

   -45.3710 -45.3322  -2.5533   6.7534   6.7534   6.7534   9.0437

     occupation numbers 
     1.0000   1.0000   1.0000   0.0000   0.0000   0.0000   0.0000

          k = 0.0000 0.0000 0.1124 (   743 PWs)   bands (ev):

   -45.3700 -45.3329  -2.4345   5.3809   6.9090   6.9090   9.2055

     occupation numbers 
     1.0000   1.0000   1.0000   0.0000   0.0000   0.0000   0.0000

          k = 0.0000 0.0000 0.2248 (   735 PWs)   bands (ev):

   -45.3650 -45.3351  -2.0761   3.5269   7.3749   7.3749   9.6908

     occupation numbers 
     1.0000   1.0000   1.0000   0.0000   0.0000   0.0000   0.0000

          k = 0.0000 0.0000 0.3373 (   731 PWs)   bands (ev):

   -45.3585 -45.3396  -1.4732   1.8807   8.1477   8.1477  10.4997

     occupation numbers 
     1.0000   1.0000   1.0000   0.0000   0.0000   0.0000   0.0000

          k = 0.0000 0.0000 0.4497 (   732 PWs)   bands (ev):

   -45.3521 -45.3450  -0.6182   0.4977   9.2199   9.2199  10.5754

     occupation numbers 
     1.0000   1.0000   1.0000   1.0000   0.0000   0.0000   0.0000

          k = 0.0000 0.1124 0.1124 (   732 PWs)   bands (ev):

   -45.3672 -45.3336  -2.3156   5.1063   6.0624   7.0643  10.1780

     occupation numbers 
     1.0000   1.0000   1.0000   0.0000   0.0000   0.0000   0.0000

          k = 0.0000 0.1124 0.2248 (   727 PWs)   bands (ev):

   -45.3629 -45.3357  -1.9578   3.5616   6.2607   7.5289  10.8689

     occupation numbers 
     1.0000   1.0000   1.0000   0.0000   0.0000   0.0000   0.0000

          k = 0.0000 0.1124 0.3373 (   728 PWs)   bands (ev):

   -45.3577 -45.3395  -1.3565   1.9665   6.9939   8.2990  10.9838

     occupation numbers 
     1.0000   1.0000   1.0000   0.0000   0.0000   0.0000   0.0000

          k = 0.0000 0.1124 0.4497 (   732 PWs)   bands (ev):

   -45.3519 -45.3449  -0.5053   0.6022   8.0464   9.3654   9.3874

     occupation numbers 
     1.0000   1.0000   1.0000   1.0000   0.0000   0.0000   0.0000

          k = 0.0000 0.2248 0.2248 (   722 PWs)   bands (ev):

   -45.3600 -45.3367  -1.6023   3.2786   5.2188   7.9892  10.9341

     occupation numbers 
     1.0000   1.0000   1.0000   0.0000   0.0000   0.0000   0.0000

          k = 0.0000 0.2248 0.3373 (   737 PWs)   bands (ev):

   -45.3562 -45.3414  -1.0076   2.1437   5.4845   8.7495   9.1848

     occupation numbers 
     1.0000   1.0000   1.0000   0.0000   0.0000   0.0000   0.0000

          k = 0.0000 0.2248 0.4497 (   728 PWs)   bands (ev):

   -45.3505 -45.3448  -0.1730   0.8936   6.3946   7.6520   9.7945

     occupation numbers 
     1.0000   1.0000   1.0000   1.0000   0.0000   0.0000   0.0000

          k = 0.0000 0.3373 0.3373 (   728 PWs)   bands (ev):

   -45.3532 -45.3418  -0.4323   2.0229   4.7055   7.5186   9.4868

     occupation numbers 
     1.0000   1.0000   1.0000   0.0000   0.0000   0.0000   0.0000

          k = 0.0000 0.3373 0.4497 (   729 PWs)   bands (ev):

   -45.3486 -45.3457   0.3500   1.2660   5.0712   6.1114  10.4748

     occupation numbers 
     1.0000   1.0000   1.0000   0.0000   0.0000   0.0000   0.0000

          k = 0.0000 0.4497 0.4497 (   726 PWs)   bands (ev):

   -45.3472 -45.3456   0.9699   1.3903   4.4863   4.9496  11.2915

     occupation numbers 
     1.0000   1.0000   0.9923   0.0000   0.0000   0.0000   0.0000

          k = 0.1124 0.1124 0.1124 (   736 PWs)   bands (ev):

   -45.3657 -45.3350  -2.1969   5.2645   5.2645   6.9447  11.4866

     occupation numbers 
     1.0000   1.0000   1.0000   0.0000   0.0000   0.0000   0.0000

          k = 0.1124 0.1124 0.2248 (   727 PWs)   bands (ev):

   -45.3614 -45.3368  -1.8392   3.6351   5.7388   7.2969  11.9615

     occupation numbers 
     1.0000   1.0000   1.0000   0.0000   0.0000   0.0000   0.0000

          k = 0.1124 0.1124 0.3373 (   730 PWs)   bands (ev):

   -45.3575 -45.3396  -1.2390   2.0623   6.5273   7.9887  10.7139

     occupation numbers 
     1.0000   1.0000   1.0000   0.0000   0.0000   0.0000   0.0000

          k = 0.1124 0.1124 0.4497 (   732 PWs)   bands (ev):

   -45.3519 -45.3445  -0.3905   0.7107   7.6262   8.9566   9.0277

     occupation numbers 
     1.0000   1.0000   1.0000   1.0000   0.0000   0.0000   0.0000

          k = 0.1124 0.2248 0.2248 (   726 PWs)   bands (ev):

   -45.3587 -45.3382  -1.4830   3.4378   4.9145   7.5497  10.9805

     occupation numbers 
     1.0000   1.0000   1.0000   0.0000   0.0000   0.0000   0.0000

          k = 0.1124 0.2248 0.3373 (   726 PWs)   bands (ev):

   -45.3551 -45.3405  -0.8877   2.2722   5.3203   8.1904   9.2015

     occupation numbers 
     1.0000   1.0000   1.0000   0.0000   0.0000   0.0000   0.0000

          k = 0.1124 0.2248 0.4497 (   729 PWs)   bands (ev):

   -45.3501 -45.3449  -0.0528   1.0145   6.3050   7.6187   9.1083

     occupation numbers 
     1.0000   1.0000   1.0000   0.5436   0.0000   0.0000   0.0000

          k = 0.1124 0.3373 0.3373 (   731 PWs)   bands (ev):

   -45.3525 -45.3425  -0.3084   2.1826   4.6163   7.5607   8.8000

     occupation numbers 
     1.0000   1.0000   1.0000   0.0000   0.0000   0.0000   0.0000

          k = 0.1124 0.3373 0.4497 (   726 PWs)   bands (ev):

   -45.3484 -45.3450   0.4802   1.4088   5.0515   6.1352   9.6775

     occupation numbers 
     1.0000   1.0000   1.0000   0.0000   0.0000   0.0000   0.0000

          k = 0.1124 0.4497 0.4497 (   726 PWs)   bands (ev):

   -45.3474 -45.3453   1.1160   1.5501   4.4847   4.9719  10.4891

     occupation numbers 
     1.0000   1.0000   0.0000   0.0000   0.0000   0.0000   0.0000

          k = 0.2248 0.2248 0.2248 (   729 PWs)   bands (ev):

   -45.3571 -45.3392  -1.1254   3.9152   3.9152   7.3409  10.9608

     occupation numbers 
     1.0000   1.0000   1.0000   0.0000   0.0000   0.0000   0.0000

          k = 0.2248 0.2248 0.3373 (   732 PWs)   bands (ev):

   -45.3533 -45.3421  -0.5295   2.6035   4.7097   7.6922   8.9608

     occupation numbers 
     1.0000   1.0000   1.0000   0.0000   0.0000   0.0000   0.0000

          k = 0.2248 0.2248 0.4497 (   733 PWs)   bands (ev):

   -45.3488 -45.3457   0.3018   1.3580   5.8192   7.2393   8.3692

     occupation numbers 
     1.0000   1.0000   1.0000   0.0000   0.0000   0.0000   0.0000

          k = 0.2248 0.3373 0.3373 (   728 PWs)   bands (ev):

   -45.3505 -45.3432   0.0603   2.6614   4.2431   7.6629   7.8400

     occupation numbers 
     1.0000   1.0000   1.0000   0.0000   0.0000   0.0000   0.0000

          k = 0.2248 0.3373 0.4497 (   720 PWs)   bands (ev):

   -45.3470 -45.3446   0.8643   1.8261   4.9325   6.1707   8.3753

     occupation numbers 
     1.0000   1.0000   1.0000   0.0000   0.0000   0.0000   0.0000

          k = 0.2248 0.4497 0.4497 (   718 PWs)   bands (ev):

   -45.3462 -45.3444   1.5487   2.0294   4.4626   5.0387   8.7840

     occupation numbers 
     1.0000   1.0000   0.0000   0.0000   0.0000   0.0000   0.0000

          k = 0.3373 0.3373 0.3373 (   717 PWs)   bands (ev):

   -45.3474 -45.3435   0.6633   3.4585   3.4585   7.4171   7.7354

     occupation numbers 
     1.0000   1.0000   1.0000   0.0000   0.0000   0.0000   0.0000

          k = 0.3373 0.3373 0.4497 (   724 PWs)   bands (ev):

   -45.3460 -45.3450   1.4776   2.4512   4.5723   6.0000   7.4589

     occupation numbers 
     1.0000   1.0000   0.0000   0.0000   0.0000   0.0000   0.0000

          k = 0.3373 0.4497 0.4497 (   710 PWs)   bands (ev):

   -45.3444 -45.3440   2.2449   2.8276   4.3474   5.1557   7.1146

     occupation numbers 
     1.0000   1.0000   0.0000   0.0000   0.0000   0.0000   0.0000

          k = 0.4497 0.4497 0.4497 (   702 PWs)   bands (ev):

   -45.3436 -45.3432   3.1279   3.9432   3.9432   5.3739   5.3739

     occupation numbers 
     1.0000   1.0000   0.0000   0.0000   0.0000   0.0000   0.0000

     the Fermi energy is     1.0166 ev

!    total energy              =     -28.94201377 Ry
     Harris-Foulkes estimate   =     -28.94201376 Ry
     estimated scf accuracy    <          5.2E-09 Ry

     The total energy is the sum of the following terms:

     one-electron contribution =     -19.19950272 Ry
     hartree contribution      =       7.25798442 Ry
     xc contribution           =      -6.76527129 Ry
     ewald contribution        =     -10.23514935 Ry
     smearing contrib. (-TS)   =      -0.00007484 Ry

     convergence has been achieved in   6 iterations

     Forces acting on atoms (cartesian axes, Ry/au):

     atom    1 type  1   force =     0.00000000    0.00000000   -0.00000000
     atom    2 type  1   force =     0.00000000    0.00000000    0.00000000
     The non-local contrib.  to forces
     atom    1 type  1   force =     0.00000000    0.00000000    0.00000000
     atom    2 type  1   force =     0.00000000    0.00000000    0.00000000
     The ionic contribution  to forces
     atom    1 type  1   force =    -0.00000000   -0.00000000   -0.00000000
     atom    2 type  1   force =     0.00000000    0.00000000    0.00000000
     The local contribution  to forces
     atom    1 type  1   force =    -0.00000000   -0.00000000   -0.00000000
     atom    2 type  1   force =     0.00000000    0.00000000    0.00000000
     The core correction contribution to forces
     atom    1 type  1   force =     0.00000000    0.00000000    0.00000000
     atom    2 type  1   force =     0.00000000    0.00000000    0.00000000
     The Hubbard contrib.    to forces
     atom    1 type  1   force =     0.00000000    0.00000000    0.00000000
     atom    2 type  1   force =     0.00000000    0.00000000    0.00000000
     The SCF correction term to forces
     atom    1 type  1   force =     0.00000000   -0.00000000    0.00000000
     atom    2 type  1   force =    -0.00000000   -0.00000000    0.00000000

     Total force =     0.000000     Total SCF correction =     0.000000


     Computing stress (Cartesian axis) and pressure

          total   stress  (Ry/bohr**3)                   (kbar)     P=   -2.29
  -0.00001556   0.00000000   0.00000000         -2.29      0.00      0.00
   0.00000000  -0.00001556   0.00000000          0.00     -2.29      0.00
   0.00000000   0.00000000  -0.00001556          0.00      0.00     -2.29

     kinetic stress (kbar)   2404.07      0.00      0.00
                                0.00   2404.07      0.00
                                0.00      0.00   2404.07

     local   stress (kbar)    382.70     -0.00     -0.00
                               -0.00    382.70     -0.00
                               -0.00     -0.00    382.70

     nonloc. stress (kbar)  -1017.30      0.00      0.00
                                0.00  -1017.30      0.00
                                0.00      0.00  -1017.30

     hartree stress (kbar)   1357.56     -0.00      0.00
                               -0.00   1357.56     -0.00
                                0.00     -0.00   1357.56

     exc-cor stress (kbar)  -1214.90      0.00      0.00
                                0.00  -1214.90      0.00
                                0.00      0.00  -1214.90

     corecor stress (kbar)      0.00      0.00      0.00
                                0.00      0.00      0.00
                                0.00      0.00      0.00

     ewald   stress (kbar)  -1914.41     -0.00      0.00
                               -0.00  -1914.41      0.00
                                0.00      0.00  -1914.41

     hubbard stress (kbar)      0.00      0.00      0.00
                                0.00      0.00      0.00
                                0.00      0.00      0.00

     london  stress (kbar)      0.00      0.00      0.00
                                0.00      0.00      0.00
                                0.00      0.00      0.00

     DFT-D3  stress (kbar)      0.00      0.00      0.00
                                0.00      0.00      0.00
                                0.00      0.00      0.00

     XDM     stress (kbar)      0.00      0.00      0.00
                                0.00      0.00      0.00
                                0.00      0.00      0.00

     dft-nl  stress (kbar)      0.00      0.00      0.00
                                0.00      0.00      0.00
                                0.00      0.00      0.00

     TS-vdW  stress (kbar)      0.00      0.00      0.00
                                0.00      0.00      0.00
                                0.00      0.00      0.00



     Writing output data file VLAB.save/
 
     init_run     :      0.39s CPU      3.15s WALL (       2 calls)
     electrons    :      6.66s CPU      7.25s WALL (       8 calls)
     update_pot   :      0.02s CPU      0.02s WALL (       6 calls)
     forces       :      0.03s CPU      0.04s WALL (       8 calls)
     stress       :      0.06s CPU      0.06s WALL (       8 calls)

     Called by init_run:
     wfcinit      :      0.37s CPU      1.57s WALL (       2 calls)
     wfcinit:wfcr :      0.37s CPU      1.57s WALL (      70 calls)
     potinit      :      0.00s CPU      0.01s WALL (       2 calls)
     hinit0       :      0.01s CPU      1.06s WALL (       2 calls)

     Called by electrons:
     c_bands      :      6.34s CPU      6.87s WALL (      33 calls)
     sum_band     :      0.27s CPU      0.32s WALL (      33 calls)
     v_of_rho     :      0.02s CPU      0.03s WALL (      41 calls)
     v_h          :      0.00s CPU      0.00s WALL (      41 calls)
     v_xc         :      0.02s CPU      0.02s WALL (      41 calls)
     newd         :      0.01s CPU      0.38s WALL (      41 calls)
     mix_rho      :      0.00s CPU      0.01s WALL (      33 calls)

     Called by c_bands:
     init_us_2    :      0.02s CPU      0.02s WALL (    2940 calls)
     cegterg      :      6.28s CPU      6.80s WALL (    1155 calls)

     Called by sum_band:
     sum_band:bec :      0.00s CPU      0.00s WALL (    1155 calls)
     addusdens    :      0.01s CPU      0.03s WALL (      33 calls)

     Called by *egterg:
     h_psi        :      1.65s CPU      1.82s WALL (    4471 calls)
     s_psi        :      0.02s CPU      0.02s WALL (    4471 calls)
     g_psi        :      0.01s CPU      0.01s WALL (    3246 calls)
     cdiaghg      :      4.11s CPU      5.53s WALL (    4191 calls)
     cegterg:over :      0.38s CPU      0.41s WALL (    3246 calls)
     cegterg:upda :      0.18s CPU      0.19s WALL (    3246 calls)
     cegterg:last :      0.08s CPU      0.08s WALL (    1312 calls)
     cdiaghg:chol :      0.63s CPU      1.25s WALL (    4191 calls)
     cdiaghg:inve :      0.21s CPU      0.22s WALL (    4191 calls)
     cdiaghg:para :      0.26s CPU      0.27s WALL (    8382 calls)

     Called by h_psi:
     h_psi:pot    :      1.64s CPU      1.81s WALL (    4471 calls)
     h_psi:calbec :      0.09s CPU      0.16s WALL (    4471 calls)
     vloc_psi     :      1.51s CPU      1.60s WALL (    4471 calls)
     add_vuspsi   :      0.02s CPU      0.03s WALL (    4471 calls)

     General routines
     calbec       :      0.12s CPU      0.19s WALL (    7026 calls)
     fft          :      0.03s CPU      1.07s WALL (     587 calls)
     ffts         :      0.00s CPU      0.00s WALL (      74 calls)
     fftw         :      1.64s CPU      1.74s WALL (   56769 calls)
     interpolate  :      0.00s CPU      0.00s WALL (      41 calls)
 
     Parallel routines
     fft_scatt_xy :      0.09s CPU      0.10s WALL (   57430 calls)
     fft_scatt_yz :      1.25s CPU      1.33s WALL (   57430 calls)
 
     PWSCF        :      7.27s CPU     12.86s WALL

 
   This run was terminated on:   7:41:36  16Apr2020            

=------------------------------------------------------------------------------=
   JOB DONE.
=------------------------------------------------------------------------------=
