
     Program PWSCF v.6.4.1 starts on 16Apr2020 at  7:32:16 

     This program is part of the open-source Quantum ESPRESSO suite
     for quantum simulation of materials; please cite
         "P. Giannozzi et al., J. Phys.:Condens. Matter 21 395502 (2009);
         "P. Giannozzi et al., J. Phys.:Condens. Matter 29 465901 (2017);
          URL http://www.quantum-espresso.org", 
     in publications or presentations arising from this work. More details at
     http://www.quantum-espresso.org/quote

     Parallel version (MPI), running on    48 processors

     MPI processes distributed on     1 nodes
     R & G space division:  proc/nbgrp/npool/nimage =      48
     Waiting for input...
     Reading input from standard input

     Current dimensions of program PWSCF are:
     Max number of different atomic species (ntypx) = 10
     Max number of k-points (npk) =  40000
     Max angular momentum in pseudopotentials (lmaxx) =  3
               file Fe.pbe-spn-kjpaw_psl.0.2.1.UPF: wavefunction(s)  3D renormalized
               file O.pbe-n-kjpaw_psl.0.1.UPF: wavefunction(s)  2P renormalized

     Subspace diagonalization in iterative solution of the eigenvalue problem:
     one sub-group per band group will be used
     scalapack distributed-memory algorithm (size of sub-group:  4*  4 procs)

     Message from routine setup:
     DEPRECATED: symmetry with ibrav=0, use correct ibrav instead
 
     Parallelization info
     --------------------
     sticks:   dense  smooth     PW     G-vecs:    dense   smooth      PW
     Min          45      45     11                  943      943     117
     Max          46      46     12                  945      945     120
     Sum        2169    2169    539                45327    45327    5669
 


     bravais-lattice index     =            0
     lattice parameter (alat)  =      19.7533  a.u.
     unit-cell volume          =    2040.8545 (a.u.)^3
     number of atoms/cell      =           28
     number of atomic types    =            4
     number of electrons       =       192.00
     number of Kohn-Sham states=          115
     kinetic-energy cutoff     =      30.0000  Ry
     charge density cutoff     =     120.0000  Ry
     convergence threshold     =      1.0E-06
     mixing beta               =       0.5000
     number of iterations used =            8  plain     mixing
     Exchange-correlation      =  SLA  PW   PBX  PBC ( 1  4  3  4 0 0)
     nstep                     =          100


     celldm(1)=  19.753284  celldm(2)=   0.000000  celldm(3)=   0.000000
     celldm(4)=   0.000000  celldm(5)=   0.000000  celldm(6)=   0.000000

     crystal axes: (cart. coord. in units of alat)
               a(1) = (   1.000000   0.000000   0.000000 )  
               a(2) = (   0.000000   0.582273   0.000000 )  
               a(3) = (   0.000000   0.000000   0.454744 )  

     reciprocal axes: (cart. coord. in units 2 pi/alat)
               b(1) = (  1.000000  0.000000  0.000000 )  
               b(2) = (  0.000000  1.717407  0.000000 )  
               b(3) = (  0.000000  0.000000  2.199038 )  


     PseudoPot. # 1 for P  read from file:
     ./P.pbe-n-rrkjus_psl.1.0.0.UPF
     MD5 check sum: 8b930f418f0a4573dca56cd030ffe088
     Pseudo is Ultrasoft + core correction, Zval =  5.0
     Generated using "atomic" code by A. Dal Corso v.5.1
     Using radial grid of 1147 points,  6 beta functions with: 
                l(1) =   0
                l(2) =   0
                l(3) =   1
                l(4) =   1
                l(5) =   2
                l(6) =   2
     Q(r) pseudized with 0 coefficients 


     PseudoPot. # 2 for Fe read from file:
     ./Fe.pbe-spn-kjpaw_psl.0.2.1.UPF
     MD5 check sum: e86618425769142926afa95317d90200
     Pseudo is Projector augmented-wave + core cor, Zval = 16.0
     Generated using "atomic" code by A. Dal Corso v.5.0.99 svn rev. 10869
     Shape of augmentation charge: PSQ
     Using radial grid of 1191 points,  6 beta functions with: 
                l(1) =   0
                l(2) =   0
                l(3) =   1
                l(4) =   1
                l(5) =   2
                l(6) =   2
     Q(r) pseudized with 0 coefficients 


     PseudoPot. # 3 for O  read from file:
     ./O.pbe-n-kjpaw_psl.0.1.UPF
     MD5 check sum: 0234752ac141de4415c5fc33072bef88
     Pseudo is Projector augmented-wave + core cor, Zval =  6.0
     Generated using "atomic" code by A. Dal Corso v.5.0.99 svn rev. 10869
     Shape of augmentation charge: BESSEL
     Using radial grid of 1095 points,  4 beta functions with: 
                l(1) =   0
                l(2) =   0
                l(3) =   1
                l(4) =   1
     Q(r) pseudized with 0 coefficients 


     PseudoPot. # 4 for Li read from file:
     ./li_pbe_v1.4.uspp.F.UPF
     MD5 check sum: e912e257baa3777c20ea3d68f190483c
     Pseudo is Ultrasoft, Zval =  3.0
     Generated by new atomic code, or converted to UPF format
     Using radial grid of  751 points,  5 beta functions with: 
                l(1) =   0
                l(2) =   0
                l(3) =   0
                l(4) =   1
                l(5) =   1
     Q(r) pseudized with 10 coefficients,  rinner =    1.150   1.150   1.150


     atomic species   valence    mass     pseudopotential
        P              5.00    30.97376     P ( 1.00)
        Fe            16.00    55.84500     Fe( 1.00)
        O              6.00    15.99940     O ( 1.00)
        Li             3.00     6.94100     Li( 1.00)

      8 Sym. Ops., with inversion, found ( 6 have fractional translation)



   Cartesian axes

     site n.     atom                  positions (alat units)
         1           Li  tau(   1) = (   0.0000000   0.0000000   0.0000000  )
         2           Li  tau(   2) = (   0.5000000   0.0000000   0.2273722  )
         3           Li  tau(   3) = (   0.5000000   0.2911366   0.2273722  )
         4           Li  tau(   4) = (   0.0000000   0.2911366   0.0000000  )
         5           Fe  tau(   5) = (   0.2185060   0.4367049   0.2164738  )
         6           Fe  tau(   6) = (   0.7814940   0.1455683   0.2382706  )
         7           Fe  tau(   7) = (   0.2814940   0.1455683   0.4438459  )
         8           Fe  tau(   8) = (   0.7185060   0.4367049   0.0108984  )
         9           P   tau(   9) = (   0.0946680   0.1455683   0.1904669  )
        10           P   tau(  10) = (   0.9053320   0.4367049   0.2642774  )
        11           P   tau(  11) = (   0.4053320   0.4367049   0.4178391  )
        12           P   tau(  12) = (   0.5946680   0.1455683   0.0369052  )
        13           O   tau(  13) = (   0.1656890   0.0274210   0.1301224  )
        14           O   tau(  14) = (   0.8343110   0.5548522   0.3246220  )
        15           O   tau(  15) = (   0.3343110   0.5548522   0.3574945  )
        16           O   tau(  16) = (   0.6656890   0.0274210   0.0972498  )
        17           O   tau(  17) = (   0.6656890   0.2637156   0.0972498  )
        18           O   tau(  18) = (   0.3343110   0.3185576   0.3574945  )
        19           O   tau(  19) = (   0.8343110   0.3185576   0.3246220  )
        20           O   tau(  20) = (   0.1656890   0.2637156   0.1301224  )
        21           O   tau(  21) = (   0.0427110   0.4367049   0.3213164  )
        22           O   tau(  22) = (   0.9572890   0.1455683   0.1334279  )
        23           O   tau(  23) = (   0.4572890   0.1455683   0.0939443  )
        24           O   tau(  24) = (   0.5427110   0.4367049   0.3608001  )
        25           O   tau(  25) = (   0.0965200   0.1455683   0.3375663  )
        26           O   tau(  26) = (   0.9034800   0.4367049   0.1171781  )
        27           O   tau(  27) = (   0.4034800   0.4367049   0.1101941  )
        28           O   tau(  28) = (   0.5965200   0.1455683   0.3445502  )

     number of k points=     1  gaussian smearing, width (Ry)=  0.0020
                       cart. coord. in units 2pi/alat
        k(    1) = (   0.0000000   0.0000000   0.0000000), wk =   2.0000000

     Dense  grid:    45327 G-vectors     FFT dimensions: (  72,  48,  32)

     Estimated max dynamical RAM per process >      27.55 MB

     Estimated total dynamical RAM >       1.29 GB

     Check: negative core charge=   -0.003411

     Initial potential from superposition of free atoms

     starting charge  190.19461, renormalised to  192.00000
     Starting wfcs are  152 randomized atomic wfcs
     Checking if some PAW data can be deallocated... 

     total cpu time spent up to now is        5.9 secs

     Self-consistent Calculation

     iteration #  1     ecut=    30.00 Ry     beta= 0.50
     Davidson diagonalization with overlap
     ethr =  1.00E-02,  avg # of iterations =  4.0

     total cpu time spent up to now is        6.3 secs

     total energy              =   -2096.33432064 Ry
     Harris-Foulkes estimate   =   -2100.24736707 Ry
     estimated scf accuracy    <       6.45578107 Ry

     iteration #  2     ecut=    30.00 Ry     beta= 0.50
     Davidson diagonalization with overlap
     ethr =  3.36E-03,  avg # of iterations =  2.0

     total cpu time spent up to now is        6.5 secs

     total energy              =   -2092.30431492 Ry
     Harris-Foulkes estimate   =   -2102.67746553 Ry
     estimated scf accuracy    <      45.80107286 Ry

     iteration #  3     ecut=    30.00 Ry     beta= 0.50
     Davidson diagonalization with overlap
     ethr =  3.36E-03,  avg # of iterations =  3.0

     total cpu time spent up to now is        6.7 secs

     total energy              =   -2098.97189152 Ry
     Harris-Foulkes estimate   =   -2099.33369893 Ry
     estimated scf accuracy    <       2.11384628 Ry

     iteration #  4     ecut=    30.00 Ry     beta= 0.50
     Davidson diagonalization with overlap
     ethr =  1.10E-03,  avg # of iterations =  2.0

     negative rho (up, down):  5.537E-04 0.000E+00

     total cpu time spent up to now is        6.9 secs

     total energy              =   -2098.99128200 Ry
     Harris-Foulkes estimate   =   -2099.10182570 Ry
     estimated scf accuracy    <       0.62272667 Ry

     iteration #  5     ecut=    30.00 Ry     beta= 0.50
     Davidson diagonalization with overlap
     ethr =  3.24E-04,  avg # of iterations =  2.0

     negative rho (up, down):  1.264E-03 0.000E+00

     total cpu time spent up to now is        7.0 secs

     total energy              =   -2099.03676811 Ry
     Harris-Foulkes estimate   =   -2099.04468337 Ry
     estimated scf accuracy    <       0.05484459 Ry

     iteration #  6     ecut=    30.00 Ry     beta= 0.50
     Davidson diagonalization with overlap
     ethr =  2.86E-05,  avg # of iterations =  8.0

     negative rho (up, down):  1.491E-03 0.000E+00

     total cpu time spent up to now is        7.4 secs

     total energy              =   -2099.04266952 Ry
     Harris-Foulkes estimate   =   -2099.04311056 Ry
     estimated scf accuracy    <       0.00403475 Ry

     iteration #  7     ecut=    30.00 Ry     beta= 0.50
     Davidson diagonalization with overlap
     ethr =  2.10E-06,  avg # of iterations =  4.0

     negative rho (up, down):  1.643E-03 0.000E+00

     total cpu time spent up to now is        7.6 secs

     total energy              =   -2099.04322213 Ry
     Harris-Foulkes estimate   =   -2099.04336847 Ry
     estimated scf accuracy    <       0.00113552 Ry

     iteration #  8     ecut=    30.00 Ry     beta= 0.50
     Davidson diagonalization with overlap
     ethr =  5.91E-07,  avg # of iterations =  2.0

     negative rho (up, down):  1.710E-03 0.000E+00

     total cpu time spent up to now is        7.8 secs

     total energy              =   -2099.04326568 Ry
     Harris-Foulkes estimate   =   -2099.04332481 Ry
     estimated scf accuracy    <       0.00015099 Ry

     iteration #  9     ecut=    30.00 Ry     beta= 0.50
     Davidson diagonalization with overlap
     ethr =  7.86E-08,  avg # of iterations =  3.0

     negative rho (up, down):  1.708E-03 0.000E+00

     total cpu time spent up to now is        8.0 secs

     total energy              =   -2099.04329968 Ry
     Harris-Foulkes estimate   =   -2099.04330214 Ry
     estimated scf accuracy    <       0.00000496 Ry

     iteration # 10     ecut=    30.00 Ry     beta= 0.50
     Davidson diagonalization with overlap
     ethr =  2.58E-09,  avg # of iterations =  4.0

     negative rho (up, down):  1.709E-03 0.000E+00

     total cpu time spent up to now is        8.2 secs

     End of self-consistent calculation

          k = 0.0000 0.0000 0.0000 (  5669 PWs)   bands (ev):

   -80.4745 -80.4717 -80.4696 -80.4695 -45.5576 -45.5406 -45.5179 -45.5142
   -45.5044 -45.4949 -45.4845 -45.4833 -45.2487 -45.2463 -45.2460 -45.2361
   -37.5229 -37.5227 -37.5147 -37.5140 -15.4350 -15.2779 -15.1948 -15.0954
   -12.8300 -12.8203 -12.7904 -12.7444 -12.7294 -12.7201 -12.6962 -12.6604
   -12.5893 -12.5670 -12.5565 -12.5487  -2.7229  -2.2897  -2.2753  -2.1236
    -1.0671  -0.6847  -0.6486  -0.5795  -0.3000  -0.2246   0.0772   0.2036
     0.2486   0.3177   0.3823   0.4732   1.4924   1.8955   2.0009   2.0544
     2.1184   2.1760   2.1984   2.2047   2.3390   2.4928   2.7811   2.9566
     2.9750   3.0091   3.0300   3.0673   3.0897   3.1833   3.2390   3.3077
     3.3721   3.5338   3.5874   3.6608   3.7706   3.8557   3.9732   4.0226
     4.1364   4.3158   4.6798   4.8603   6.1935   6.2320   6.3173   6.3620
     6.3861   6.4424   6.4703   6.4826   6.5739   6.5752   6.5832   6.5857
     7.9708   7.9770   8.0056   8.2496   8.4311   8.4536   8.5710   8.5952
     9.5361  11.3908  11.9540  12.4154  13.1514  13.4286  13.5958  13.6943
    13.8718  13.9779  14.3286

     the Fermi energy is     6.9681 ev

!    total energy              =   -2099.04330102 Ry
     Harris-Foulkes estimate   =   -2099.04330190 Ry
     estimated scf accuracy    <       0.00000099 Ry

     The total energy is the sum of the following terms:

     one-electron contribution =    -958.03965301 Ry
     hartree contribution      =     568.16464717 Ry
     xc contribution           =    -292.19709670 Ry
     ewald contribution        =    -960.42563899 Ry
     one-center paw contrib.   =    -456.54555949 Ry
     smearing contrib. (-TS)   =      -0.00000000 Ry

     convergence has been achieved in  10 iterations

     negative rho (up, down):  1.709E-03 0.000E+00

     Forces acting on atoms (cartesian axes, Ry/au):

     atom    1 type  4   force =     0.00000000    0.00000000    0.00000000
     atom    2 type  4   force =     0.00000000    0.00000000    0.00000000
     atom    3 type  4   force =     0.00000000    0.00000000    0.00000000
     atom    4 type  4   force =     0.00000000    0.00000000    0.00000000
     atom    5 type  2   force =     0.01463946    0.00000000    0.05029428
     atom    6 type  2   force =    -0.01463946    0.00000000   -0.05029428
     atom    7 type  2   force =    -0.01463946   -0.00000000    0.05029428
     atom    8 type  2   force =     0.01463946    0.00000000   -0.05029428
     atom    9 type  1   force =     0.01338214    0.00000000    0.02228501
     atom   10 type  1   force =    -0.01338214    0.00000000   -0.02228501
     atom   11 type  1   force =    -0.01338214   -0.00000000    0.02228501
     atom   12 type  1   force =     0.01338214    0.00000000   -0.02228501
     atom   13 type  3   force =     0.01899740   -0.03119466   -0.03528983
     atom   14 type  3   force =    -0.01899740    0.03119466    0.03528983
     atom   15 type  3   force =    -0.01899740    0.03119466   -0.03528983
     atom   16 type  3   force =     0.01899740   -0.03119466    0.03528983
     atom   17 type  3   force =     0.01899740    0.03119466    0.03528983
     atom   18 type  3   force =    -0.01899740   -0.03119466   -0.03528983
     atom   19 type  3   force =    -0.01899740   -0.03119466    0.03528983
     atom   20 type  3   force =     0.01899740    0.03119466   -0.03528983
     atom   21 type  3   force =     0.04874838    0.00000000   -0.00303090
     atom   22 type  3   force =    -0.04874838    0.00000000    0.00303090
     atom   23 type  3   force =    -0.04874838    0.00000000   -0.00303090
     atom   24 type  3   force =     0.04874838    0.00000000    0.00303090
     atom   25 type  3   force =     0.02166391    0.00000000    0.02525979
     atom   26 type  3   force =    -0.02166391    0.00000000   -0.02525979
     atom   27 type  3   force =    -0.02166391    0.00000000    0.02525979
     atom   28 type  3   force =     0.02166391   -0.00000000   -0.02525979

     Total force =     0.219739     Total SCF correction =     0.002078


     Computing stress (Cartesian axis) and pressure


     negative rho (up, down):  1.709E-03 0.000E+00
          total   stress  (Ry/bohr**3)                   (kbar)     P= -421.19
  -0.00287813   0.00000000   0.00000000       -423.39      0.00      0.00
   0.00000000  -0.00264533   0.00000000          0.00   -389.14      0.00
   0.00000000   0.00000000  -0.00306606          0.00      0.00   -451.03


     BFGS Geometry Optimization

     number of scf cycles    =   1
     number of bfgs steps    =   0

     enthalpy new            =   -2099.0433010222 Ry

     new trust radius        =       0.5000000000 bohr
     new conv_thr            =       0.0000010000 Ry

     new unit-cell volume =   1740.49719 a.u.^3 (   257.91507 Ang^3 )
     density =      4.06277 g/cm^3

CELL_PARAMETERS (angstrom)
   9.909981994   0.000000000   0.000000000
   0.000000000   5.795891975   0.000000000
   0.000000000   0.000000000   4.490384926

ATOMIC_POSITIONS (angstrom)
Li       0.000000000   0.000000000   0.000000000
Li       4.954990997   0.000000000   2.245192463
Li       4.954990997   2.897945988   2.245192463
Li       0.000000000   2.897945988   0.000000000
Fe       2.170692922   4.346918982   2.155727254
Fe       7.739289073   1.448972994   2.334657672
Fe       2.784298075   1.448972994   4.400919717
Fe       7.125683919   4.346918982   0.089465209
P        0.943005171   1.448972994   1.888813511
P        8.966976823   4.346918982   2.601571415
P        4.011985826   4.346918982   4.134005973
P        5.897996168   1.448972994   0.356378952
O        1.648855843   0.261597192   1.272160498
O        8.261126151   5.534294783   3.218224428
O        3.306135154   5.534294783   3.517352960
O        6.603846840   0.261597192   0.973031965
O        6.603846840   2.636348795   0.973031965
O        3.306135154   3.159543180   3.517352960
O        8.261126151   3.159543180   3.218224428
O        1.648855843   2.636348795   1.272160498
O        0.440921850   4.346918982   3.171753754
O        9.469060145   1.448972994   1.318631172
O        4.514069148   1.448972994   0.926561291
O        5.395912847   4.346918982   3.563823634
O        0.964358108   1.448972994   3.342423363
O        8.945623886   4.346918982   1.147961563
O        3.990632889   4.346918982   1.097230900
O        5.919349105   1.448972994   3.393154026



     Writing output data file VLAB.save/
     Message from routine punch:
     wavefunctions written to file
     NEW-OLD atomic charge density approx. for the potential

     Check: negative core charge=   -0.002690

     negative rho (up, down):  1.517E-03 0.000E+00
     extrapolated charge  159.17814, renormalised to  192.00000

     total cpu time spent up to now is        8.7 secs

     Self-consistent Calculation

     iteration #  1     ecut=    30.00 Ry     beta= 0.50
     Davidson diagonalization with overlap
     ethr =  1.00E-06,  avg # of iterations = 16.0

     negative rho (up, down):  9.776E-04 0.000E+00

     total cpu time spent up to now is        9.5 secs

     total energy              =   -2003.76916787 Ry
     Harris-Foulkes estimate   =   -2258.71645026 Ry
     estimated scf accuracy    <     114.92361136 Ry

     iteration #  2     ecut=    30.00 Ry     beta= 0.50
     Davidson diagonalization with overlap
     ethr =  1.00E-02,  avg # of iterations =  6.0

     negative rho (up, down):  1.124E-04 0.000E+00

     total cpu time spent up to now is        9.8 secs

     total energy              =   -2095.90932584 Ry
     Harris-Foulkes estimate   =   -2215.97719323 Ry
     estimated scf accuracy    <     398.07847671 Ry

     iteration #  3     ecut=    30.00 Ry     beta= 0.50
     Davidson diagonalization with overlap
     ethr =  1.00E-02,  avg # of iterations =  4.0

     total cpu time spent up to now is       10.1 secs

     total energy              =   -2102.75969781 Ry
     Harris-Foulkes estimate   =   -2118.66070466 Ry
     estimated scf accuracy    <     124.30865609 Ry

     iteration #  4     ecut=    30.00 Ry     beta= 0.50
     Davidson diagonalization with overlap
     ethr =  1.00E-02,  avg # of iterations =  3.0

     total cpu time spent up to now is       10.4 secs

     total energy              =   -2100.35554131 Ry
     Harris-Foulkes estimate   =   -2105.13607068 Ry
     estimated scf accuracy    <      39.29141079 Ry

     iteration #  5     ecut=    30.00 Ry     beta= 0.50
     Davidson diagonalization with overlap
     ethr =  1.00E-02,  avg # of iterations =  3.0

     total cpu time spent up to now is       10.6 secs

     total energy              =   -2099.81345846 Ry
     Harris-Foulkes estimate   =   -2101.38276140 Ry
     estimated scf accuracy    <      11.09307238 Ry

     iteration #  6     ecut=    30.00 Ry     beta= 0.50
     Davidson diagonalization with overlap
     ethr =  5.78E-03,  avg # of iterations =  3.0

     total cpu time spent up to now is       10.8 secs

     total energy              =   -2099.56685645 Ry
     Harris-Foulkes estimate   =   -2100.15465703 Ry
     estimated scf accuracy    <       3.96137051 Ry

     iteration #  7     ecut=    30.00 Ry     beta= 0.50
     Davidson diagonalization with overlap
     ethr =  2.06E-03,  avg # of iterations =  4.0

     total cpu time spent up to now is       11.0 secs

     total energy              =   -2099.57217314 Ry
     Harris-Foulkes estimate   =   -2099.75011391 Ry
     estimated scf accuracy    <       1.28059005 Ry

     iteration #  8     ecut=    30.00 Ry     beta= 0.50
     Davidson diagonalization with overlap
     ethr =  6.67E-04,  avg # of iterations =  3.0

     total cpu time spent up to now is       11.2 secs

     total energy              =   -2099.46974835 Ry
     Harris-Foulkes estimate   =   -2099.61864157 Ry
     estimated scf accuracy    <       0.62758967 Ry

     iteration #  9     ecut=    30.00 Ry     beta= 0.50
     Davidson diagonalization with overlap
     ethr =  3.27E-04,  avg # of iterations =  3.0

     negative rho (up, down):  9.279E-07 0.000E+00

     total cpu time spent up to now is       11.4 secs

     total energy              =   -2099.49303889 Ry
     Harris-Foulkes estimate   =   -2099.51950648 Ry
     estimated scf accuracy    <       0.11752641 Ry

     iteration # 10     ecut=    30.00 Ry     beta= 0.50
     Davidson diagonalization with overlap
     ethr =  6.12E-05,  avg # of iterations =  4.0

     negative rho (up, down):  1.777E-05 0.000E+00

     total cpu time spent up to now is       11.7 secs

     total energy              =   -2099.50526642 Ry
     Harris-Foulkes estimate   =   -2099.51331624 Ry
     estimated scf accuracy    <       0.02197977 Ry

     iteration # 11     ecut=    30.00 Ry     beta= 0.50
     Davidson diagonalization with overlap
     ethr =  1.14E-05,  avg # of iterations =  5.0

     negative rho (up, down):  1.653E-05 0.000E+00

     total cpu time spent up to now is       11.9 secs

     total energy              =   -2099.50881148 Ry
     Harris-Foulkes estimate   =   -2099.50901187 Ry
     estimated scf accuracy    <       0.00043448 Ry

     iteration # 12     ecut=    30.00 Ry     beta= 0.50
     Davidson diagonalization with overlap
     ethr =  2.26E-07,  avg # of iterations =  4.0

     negative rho (up, down):  1.621E-05 0.000E+00

     total cpu time spent up to now is       12.2 secs

     total energy              =   -2099.50902916 Ry
     Harris-Foulkes estimate   =   -2099.50908926 Ry
     estimated scf accuracy    <       0.00025824 Ry

     iteration # 13     ecut=    30.00 Ry     beta= 0.50
     Davidson diagonalization with overlap
     ethr =  1.35E-07,  avg # of iterations =  2.0

     negative rho (up, down):  1.529E-05 0.000E+00

     total cpu time spent up to now is       12.4 secs

     total energy              =   -2099.50901520 Ry
     Harris-Foulkes estimate   =   -2099.50904407 Ry
     estimated scf accuracy    <       0.00013107 Ry

     iteration # 14     ecut=    30.00 Ry     beta= 0.50
     Davidson diagonalization with overlap
     ethr =  6.83E-08,  avg # of iterations =  2.0

     negative rho (up, down):  1.615E-05 0.000E+00

     total cpu time spent up to now is       12.5 secs

     total energy              =   -2099.50901895 Ry
     Harris-Foulkes estimate   =   -2099.50902446 Ry
     estimated scf accuracy    <       0.00002385 Ry

     iteration # 15     ecut=    30.00 Ry     beta= 0.50
     Davidson diagonalization with overlap
     ethr =  1.24E-08,  avg # of iterations =  2.0

     negative rho (up, down):  1.650E-05 0.000E+00

     total cpu time spent up to now is       12.7 secs

     total energy              =   -2099.50901924 Ry
     Harris-Foulkes estimate   =   -2099.50902070 Ry
     estimated scf accuracy    <       0.00000540 Ry

     iteration # 16     ecut=    30.00 Ry     beta= 0.50
     Davidson diagonalization with overlap
     ethr =  2.81E-09,  avg # of iterations =  3.0

     negative rho (up, down):  1.648E-05 0.000E+00

     total cpu time spent up to now is       12.9 secs

     End of self-consistent calculation

          k = 0.0000 0.0000 0.0000 (  5669 PWs)   bands (ev):

   -77.8471 -77.8463 -77.8457 -77.8452 -43.1741 -43.1614 -43.1456 -43.1412
   -43.1295 -43.1251 -43.1155 -43.1129 -42.8332 -42.8309 -42.8302 -42.8293
   -35.3507 -35.3507 -35.3347 -35.3345 -14.4274 -14.2025 -14.1061 -13.9625
   -11.4509 -11.4132 -11.3279 -11.3223 -11.3007 -11.2122 -11.1751 -11.1000
   -11.0350 -11.0011 -10.9791 -10.9607  -1.0149  -0.4162  -0.4141  -0.2320
     0.2186   0.7056   0.7703   0.7790   1.0353   1.1497   1.5530   1.6992
     1.8172   1.8275   1.9944   2.0748   2.8354   3.3051   3.4670   3.4751
     3.5612   3.5917   3.6294   3.7380   3.9093   4.1088   4.3451   4.5088
     4.5241   4.5953   4.6886   4.7208   4.7359   4.7694   4.8245   4.8352
     5.1047   5.1494   5.3676   5.4128   5.4968   5.5812   5.6675   5.7368
     5.8211   6.0801   6.4756   6.7518   8.6645   8.7545   8.8645   8.8709
     8.9251   9.0060   9.0213   9.0479   9.1310   9.1468   9.1933   9.2099
    10.7929  10.8442  10.8602  11.1794  11.3598  11.4321  11.4798  11.5044
    12.9223  14.6545  15.2060  15.5275  16.2673  16.3339  16.4113  16.8089
    16.8324  16.9337  17.3354

     the Fermi energy is     9.9452 ev

!    total energy              =   -2099.50902047 Ry
     Harris-Foulkes estimate   =   -2099.50902048 Ry
     estimated scf accuracy    <       0.00000015 Ry

     The total energy is the sum of the following terms:

     one-electron contribution =    -877.90680739 Ry
     hartree contribution      =     542.76646717 Ry
     xc contribution           =    -294.53873371 Ry
     ewald contribution        =   -1013.34811986 Ry
     one-center paw contrib.   =    -456.48182668 Ry
     smearing contrib. (-TS)   =      -0.00000000 Ry

     convergence has been achieved in  16 iterations

     negative rho (up, down):  1.648E-05 0.000E+00

     Forces acting on atoms (cartesian axes, Ry/au):

     atom    1 type  4   force =     0.00000000    0.00000000    0.00000000
     atom    2 type  4   force =     0.00000000    0.00000000    0.00000000
     atom    3 type  4   force =     0.00000000   -0.00000000    0.00000000
     atom    4 type  4   force =     0.00000000    0.00000000    0.00000000
     atom    5 type  2   force =     0.05408331   -0.00000000    0.07464523
     atom    6 type  2   force =    -0.05408331    0.00000000   -0.07464523
     atom    7 type  2   force =    -0.05408331    0.00000000    0.07464523
     atom    8 type  2   force =     0.05408331    0.00000000   -0.07464523
     atom    9 type  1   force =     0.01460893   -0.00000000   -0.03037812
     atom   10 type  1   force =    -0.01460893    0.00000000    0.03037812
     atom   11 type  1   force =    -0.01460893    0.00000000   -0.03037812
     atom   12 type  1   force =     0.01460893    0.00000000    0.03037812
     atom   13 type  3   force =     0.05806960   -0.10504310   -0.07403878
     atom   14 type  3   force =    -0.05806960    0.10504310    0.07403878
     atom   15 type  3   force =    -0.05806960    0.10504310   -0.07403878
     atom   16 type  3   force =     0.05806960   -0.10504310    0.07403878
     atom   17 type  3   force =     0.05806960    0.10504310    0.07403878
     atom   18 type  3   force =    -0.05806960   -0.10504310   -0.07403878
     atom   19 type  3   force =    -0.05806960   -0.10504310    0.07403878
     atom   20 type  3   force =     0.05806960    0.10504310   -0.07403878
     atom   21 type  3   force =     0.11733946    0.00000000    0.04211992
     atom   22 type  3   force =    -0.11733946    0.00000000   -0.04211992
     atom   23 type  3   force =    -0.11733946    0.00000000    0.04211992
     atom   24 type  3   force =     0.11733946    0.00000000   -0.04211992
     atom   25 type  3   force =     0.01210309    0.00000000    0.18072813
     atom   26 type  3   force =    -0.01210309    0.00000000   -0.18072813
     atom   27 type  3   force =    -0.01210309   -0.00000000    0.18072813
     atom   28 type  3   force =     0.01210309    0.00000000   -0.18072813

     Total force =     0.625334     Total SCF correction =     0.000403


     Computing stress (Cartesian axis) and pressure


     negative rho (up, down):  1.648E-05 0.000E+00
          total   stress  (Ry/bohr**3)                   (kbar)     P=   60.03
   0.00033115   0.00000000   0.00000000         48.71      0.00      0.00
   0.00000000   0.00040391   0.00000000          0.00     59.42      0.00
   0.00000000   0.00000000   0.00048926          0.00      0.00     71.97


     number of scf cycles    =   2
     number of bfgs steps    =   1

     enthalpy old            =   -2099.0433010222 Ry
     enthalpy new            =   -2099.5090204739 Ry

     CASE: enthalpy_new < enthalpy_old

     new trust radius        =       0.1621918090 bohr
     new conv_thr            =       0.0000010000 Ry

     new unit-cell volume =   1682.52111 a.u.^3 (   249.32390 Ang^3 )
     density =      4.20276 g/cm^3

CELL_PARAMETERS (angstrom)
   9.780260098   0.000000000   0.000000000
   0.000000000   5.739322106   0.000000000
   0.000000000   0.000000000   4.441737718

ATOMIC_POSITIONS (angstrom)
Li       0.000000000   0.000000000   0.000000000
Li       4.890130049   0.000000000   2.220868859
Li       4.890130049   2.869661053   2.220868859
Li       0.000000000   2.869661053   0.000000000
Fe       2.168633384   4.304491580   2.172625305
Fe       7.611626713   1.434830527   2.269112413
Fe       2.721496664   1.434830527   4.393494164
Fe       7.058763433   4.304491580   0.048243554
P        0.939049295   1.434830527   1.857717176
P        8.841210803   4.304491580   2.584020542
P        3.951080754   4.304491580   4.078586035
P        5.829179344   1.434830527   0.363151683
O        1.656011083   0.206869753   1.220415261
O        8.124249015   5.532452353   3.221322457
O        3.234118966   5.532452353   3.441284120
O        6.546141132   0.206869753   1.000453598
O        6.546141132   2.662791300   1.000453598
O        3.234118966   3.076530806   3.441284120
O        8.124249015   3.076530806   3.221322457
O        1.656011083   2.662791300   1.220415261
O        0.494616539   4.304491580   3.155882427
O        9.285643559   1.434830527   1.285855291
O        4.395513510   1.434830527   0.935013568
O        5.384746588   4.304491580   3.506724150
O        0.960107792   1.434830527   3.390695320
O        8.820152305   4.304491580   1.051042398
O        3.930022256   4.304491580   1.169826461
O        5.850237841   1.434830527   3.271911257



     Writing output data file VLAB.save/
     Message from routine punch:
     wavefunctions written to file
     NEW-OLD atomic charge density approx. for the potential

     Check: negative core charge=   -0.002554

     negative rho (up, down):  5.172E-06 0.000E+00
     extrapolated charge  185.44630, renormalised to  192.00000

     total cpu time spent up to now is       13.3 secs

     Self-consistent Calculation

     iteration #  1     ecut=    30.00 Ry     beta= 0.50
     Davidson diagonalization with overlap
     ethr =  1.00E-06,  avg # of iterations = 16.0

     negative rho (up, down):  1.269E-05 0.000E+00

     total cpu time spent up to now is       14.1 secs

     total energy              =   -2080.85427036 Ry
     Harris-Foulkes estimate   =   -2126.25465189 Ry
     estimated scf accuracy    <      22.11163385 Ry

     iteration #  2     ecut=    30.00 Ry     beta= 0.50
     Davidson diagonalization with overlap
     ethr =  1.00E-02,  avg # of iterations =  5.0

     total cpu time spent up to now is       14.3 secs

     total energy              =   -2095.87169672 Ry
     Harris-Foulkes estimate   =   -2136.03189811 Ry
     estimated scf accuracy    <     172.78526362 Ry

     iteration #  3     ecut=    30.00 Ry     beta= 0.50
     Davidson diagonalization with overlap
     ethr =  1.00E-02,  avg # of iterations =  4.0

     total cpu time spent up to now is       14.6 secs

     total energy              =   -2099.72446679 Ry
     Harris-Foulkes estimate   =   -2101.79814676 Ry
     estimated scf accuracy    <      18.11724233 Ry

     iteration #  4     ecut=    30.00 Ry     beta= 0.50
     Davidson diagonalization with overlap
     ethr =  9.44E-03,  avg # of iterations =  3.0

     total cpu time spent up to now is       14.8 secs

     total energy              =   -2099.76559228 Ry
     Harris-Foulkes estimate   =   -2100.21571931 Ry
     estimated scf accuracy    <       5.02204877 Ry

     iteration #  5     ecut=    30.00 Ry     beta= 0.50
     Davidson diagonalization with overlap
     ethr =  2.62E-03,  avg # of iterations =  3.0

     total cpu time spent up to now is       15.0 secs

     total energy              =   -2099.76792082 Ry
     Harris-Foulkes estimate   =   -2099.94533797 Ry
     estimated scf accuracy    <       2.10017186 Ry

     iteration #  6     ecut=    30.00 Ry     beta= 0.50
     Davidson diagonalization with overlap
     ethr =  1.09E-03,  avg # of iterations =  4.0

     total cpu time spent up to now is       15.2 secs

     total energy              =   -2099.60601366 Ry
     Harris-Foulkes estimate   =   -2099.81215993 Ry
     estimated scf accuracy    <       1.18428940 Ry

     iteration #  7     ecut=    30.00 Ry     beta= 0.50
     Davidson diagonalization with overlap
     ethr =  6.17E-04,  avg # of iterations =  3.0

     total cpu time spent up to now is       15.4 secs

     total energy              =   -2099.65292735 Ry
     Harris-Foulkes estimate   =   -2099.68864049 Ry
     estimated scf accuracy    <       0.24773475 Ry

     iteration #  8     ecut=    30.00 Ry     beta= 0.50
     Davidson diagonalization with overlap
     ethr =  1.29E-04,  avg # of iterations =  4.0

     total cpu time spent up to now is       15.6 secs

     total energy              =   -2099.67170214 Ry
     Harris-Foulkes estimate   =   -2099.68001774 Ry
     estimated scf accuracy    <       0.08133321 Ry

     iteration #  9     ecut=    30.00 Ry     beta= 0.50
     Davidson diagonalization with overlap
     ethr =  4.24E-05,  avg # of iterations =  3.0

     total cpu time spent up to now is       15.8 secs

     total energy              =   -2099.65767444 Ry
     Harris-Foulkes estimate   =   -2099.67394056 Ry
     estimated scf accuracy    <       0.04421863 Ry

     iteration # 10     ecut=    30.00 Ry     beta= 0.50
     Davidson diagonalization with overlap
     ethr =  2.30E-05,  avg # of iterations =  6.0

     total cpu time spent up to now is       16.0 secs

     total energy              =   -2099.66595462 Ry
     Harris-Foulkes estimate   =   -2099.66627089 Ry
     estimated scf accuracy    <       0.00072903 Ry

     iteration # 11     ecut=    30.00 Ry     beta= 0.50
     Davidson diagonalization with overlap
     ethr =  3.80E-07,  avg # of iterations =  4.0

     total cpu time spent up to now is       16.3 secs

     total energy              =   -2099.66640750 Ry
     Harris-Foulkes estimate   =   -2099.66643318 Ry
     estimated scf accuracy    <       0.00012664 Ry

     iteration # 12     ecut=    30.00 Ry     beta= 0.50
     Davidson diagonalization with overlap
     ethr =  6.60E-08,  avg # of iterations =  2.0

     total cpu time spent up to now is       16.4 secs

     total energy              =   -2099.66641411 Ry
     Harris-Foulkes estimate   =   -2099.66642336 Ry
     estimated scf accuracy    <       0.00002392 Ry

     iteration # 13     ecut=    30.00 Ry     beta= 0.50
     Davidson diagonalization with overlap
     ethr =  1.25E-08,  avg # of iterations =  2.0

     total cpu time spent up to now is       16.6 secs

     total energy              =   -2099.66641716 Ry
     Harris-Foulkes estimate   =   -2099.66641750 Ry
     estimated scf accuracy    <       0.00000248 Ry

     iteration # 14     ecut=    30.00 Ry     beta= 0.50
     Davidson diagonalization with overlap
     ethr =  1.29E-09,  avg # of iterations =  4.0

     total cpu time spent up to now is       16.9 secs

     End of self-consistent calculation

          k = 0.0000 0.0000 0.0000 (  5669 PWs)   bands (ev):

   -77.0012 -77.0011 -77.0009 -76.9999 -42.3624 -42.3551 -42.3420 -42.3369
   -42.3089 -42.3030 -42.2979 -42.2954 -42.0794 -42.0734 -42.0651 -42.0632
   -34.6800 -34.6799 -34.6611 -34.6610 -13.5374 -13.2085 -13.1671 -12.9508
   -10.7397 -10.6496 -10.6170 -10.5888 -10.5141 -10.4900 -10.4659 -10.4403
   -10.4387 -10.4106 -10.2715 -10.2178  -0.6919  -0.1867  -0.0623  -0.0134
     0.5936   1.1009   1.1204   1.1853   1.5448   1.5723   2.1762   2.2614
     2.3570   2.3814   2.5535   2.6464   3.4304   3.9620   3.9853   4.0446
     4.2146   4.2539   4.2983   4.3221   4.4654   4.6844   4.6916   4.8361
     4.9459   5.0552   5.0953   5.1544   5.3140   5.3415   5.3882   5.6193
     5.6890   5.7444   5.8645   5.9598   6.0797   6.0946   6.2750   6.2827
     6.4256   6.4757   6.8834   7.1671   9.4967   9.5679   9.5822   9.6203
     9.7191   9.8648   9.8673   9.9014   9.9442   9.9640  10.0401  10.0532
    11.7363  11.8118  11.8350  12.2685  12.5009  12.5320  12.6562  12.6621
    13.4203  15.1721  15.4799  16.2967  16.3411  16.5378  16.5815  16.9453
    16.9690  17.2412  17.2765

     the Fermi energy is    11.4317 ev

!    total energy              =   -2099.66641749 Ry
     Harris-Foulkes estimate   =   -2099.66641762 Ry
     estimated scf accuracy    <       0.00000049 Ry

     The total energy is the sum of the following terms:

     one-electron contribution =    -859.45268977 Ry
     hartree contribution      =     537.89058843 Ry
     xc contribution           =    -294.08299761 Ry
     ewald contribution        =   -1027.47882082 Ry
     one-center paw contrib.   =    -456.54249773 Ry
     smearing contrib. (-TS)   =      -0.00000000 Ry

     convergence has been achieved in  14 iterations

     Forces acting on atoms (cartesian axes, Ry/au):

     atom    1 type  4   force =     0.00000000    0.00000000    0.00000000
     atom    2 type  4   force =     0.00000000   -0.00000000    0.00000000
     atom    3 type  4   force =     0.00000000   -0.00000000    0.00000000
     atom    4 type  4   force =     0.00000000    0.00000000    0.00000000
     atom    5 type  2   force =     0.04481827    0.00000000   -0.04645862
     atom    6 type  2   force =    -0.04481827    0.00000000    0.04645862
     atom    7 type  2   force =    -0.04481827   -0.00000000   -0.04645862
     atom    8 type  2   force =     0.04481827   -0.00000000    0.04645862
     atom    9 type  1   force =    -0.00044826    0.00000000    0.05134071
     atom   10 type  1   force =     0.00044826    0.00000000   -0.05134071
     atom   11 type  1   force =     0.00044826   -0.00000000    0.05134071
     atom   12 type  1   force =    -0.00044826   -0.00000000   -0.05134071
     atom   13 type  3   force =    -0.00070795   -0.02012673   -0.02404202
     atom   14 type  3   force =     0.00070795    0.02012673    0.02404202
     atom   15 type  3   force =     0.00070795    0.02012673   -0.02404202
     atom   16 type  3   force =    -0.00070795   -0.02012673    0.02404202
     atom   17 type  3   force =    -0.00070795    0.02012673    0.02404202
     atom   18 type  3   force =     0.00070795   -0.02012673   -0.02404202
     atom   19 type  3   force =     0.00070795   -0.02012673    0.02404202
     atom   20 type  3   force =    -0.00070795    0.02012673   -0.02404202
     atom   21 type  3   force =    -0.01538810    0.00000000    0.01675860
     atom   22 type  3   force =     0.01538810   -0.00000000   -0.01675860
     atom   23 type  3   force =     0.01538810    0.00000000    0.01675860
     atom   24 type  3   force =    -0.01538810    0.00000000   -0.01675860
     atom   25 type  3   force =    -0.00931998   -0.00000000   -0.03072870
     atom   26 type  3   force =     0.00931998    0.00000000    0.03072870
     atom   27 type  3   force =     0.00931998    0.00000000   -0.03072870
     atom   28 type  3   force =    -0.00931998    0.00000000    0.03072870

     Total force =     0.203166     Total SCF correction =     0.000820


     Computing stress (Cartesian axis) and pressure

          total   stress  (Ry/bohr**3)                   (kbar)     P=   38.59
   0.00047383   0.00000000   0.00000000         69.70      0.00      0.00
   0.00000000   0.00039476   0.00000000          0.00     58.07      0.00
   0.00000000   0.00000000  -0.00008157          0.00      0.00    -12.00


     number of scf cycles    =   3
     number of bfgs steps    =   2

     enthalpy old            =   -2099.5090204739 Ry
     enthalpy new            =   -2099.6664174945 Ry

     CASE: enthalpy_new < enthalpy_old

     new trust radius        =       0.0671177485 bohr
     new conv_thr            =       0.0000010000 Ry

     new unit-cell volume =   1700.48920 a.u.^3 (   251.98650 Ang^3 )
     density =      4.15835 g/cm^3

CELL_PARAMETERS (angstrom)
   9.860276226   0.000000000   0.000000000
   0.000000000   5.777383910   0.000000000
   0.000000000   0.000000000   4.423407635

ATOMIC_POSITIONS (angstrom)
Li       0.000000000   0.000000000   0.000000000
Li       4.930138113  -0.000000000   2.211703817
Li       4.930138113   2.888691955   2.211703817
Li       0.000000000   2.888691955   0.000000000
Fe       2.207895068   4.333037932   2.146418174
Fe       7.652381159   1.444345977   2.276989461
Fe       2.722243045   1.444345977   4.358121991
Fe       7.138033181   4.333037932   0.065285644
P        0.947182826   1.444345977   1.871922961
P        8.913093400   4.333037932   2.551484673
P        3.982955287   4.333037932   4.083626779
P        5.877320939   1.444345977   0.339780856
O        1.671200530   0.195734507   1.202289011
O        8.189075696   5.581649402   3.221118624
O        3.258937583   5.581649402   3.413992828
O        6.601338643   0.195734507   1.009414807
O        6.601338643   2.692957448   1.009414807
O        3.258937583   3.084426462   3.413992828
O        8.189075696   3.084426462   3.221118624
O        1.671200530   2.692957448   1.202289011
O        0.496015668   4.333037932   3.151227517
O        9.364260558   1.444345977   1.272180118
O        4.434122445   1.444345977   0.939523700
O        5.426153781   4.333037932   3.483883935
O        0.964584814   1.444345977   3.368726290
O        8.895691412   4.333037932   1.054681345
O        3.965553299   4.333037932   1.157022472
O        5.894722927   1.444345977   3.266385162



     Writing output data file VLAB.save/
     Message from routine punch:
     wavefunctions written to file
     NEW-OLD atomic charge density approx. for the potential

     Check: negative core charge=   -0.002591
     extrapolated charge  194.00968, renormalised to  192.00000

     total cpu time spent up to now is       17.4 secs

     Self-consistent Calculation

     iteration #  1     ecut=    30.00 Ry     beta= 0.50
     Davidson diagonalization with overlap
     ethr =  1.00E-06,  avg # of iterations =  7.0

     total cpu time spent up to now is       17.8 secs

     total energy              =   -2099.04456295 Ry
     Harris-Foulkes estimate   =   -2091.91489480 Ry
     estimated scf accuracy    <       0.67072756 Ry

     iteration #  2     ecut=    30.00 Ry     beta= 0.50
     Davidson diagonalization with overlap
     ethr =  3.49E-04,  avg # of iterations =  3.0

     total cpu time spent up to now is       18.0 secs

     total energy              =   -2099.23787165 Ry
     Harris-Foulkes estimate   =   -2100.43340901 Ry
     estimated scf accuracy    <       5.23116809 Ry

     iteration #  3     ecut=    30.00 Ry     beta= 0.50
     Davidson diagonalization with overlap
     ethr =  3.49E-04,  avg # of iterations =  2.0

     total cpu time spent up to now is       18.2 secs

     total energy              =   -2099.68191908 Ry
     Harris-Foulkes estimate   =   -2099.72039672 Ry
     estimated scf accuracy    <       0.24933078 Ry

     iteration #  4     ecut=    30.00 Ry     beta= 0.50
     Davidson diagonalization with overlap
     ethr =  1.30E-04,  avg # of iterations =  2.0

     total cpu time spent up to now is       18.4 secs

     total energy              =   -2099.65643210 Ry
     Harris-Foulkes estimate   =   -2099.69323696 Ry
     estimated scf accuracy    <       0.12543739 Ry

     iteration #  5     ecut=    30.00 Ry     beta= 0.50
     Davidson diagonalization with overlap
     ethr =  6.53E-05,  avg # of iterations =  3.0

     total cpu time spent up to now is       18.6 secs

     total energy              =   -2099.67653831 Ry
     Harris-Foulkes estimate   =   -2099.67694822 Ry
     estimated scf accuracy    <       0.00263388 Ry

     iteration #  6     ecut=    30.00 Ry     beta= 0.50
     Davidson diagonalization with overlap
     ethr =  1.37E-06,  avg # of iterations =  5.0

     total cpu time spent up to now is       18.9 secs

     total energy              =   -2099.67820163 Ry
     Harris-Foulkes estimate   =   -2099.67894014 Ry
     estimated scf accuracy    <       0.00273826 Ry

     iteration #  7     ecut=    30.00 Ry     beta= 0.50
     Davidson diagonalization with overlap
     ethr =  1.37E-06,  avg # of iterations =  2.0

     total cpu time spent up to now is       19.1 secs

     total energy              =   -2099.67823603 Ry
     Harris-Foulkes estimate   =   -2099.67839269 Ry
     estimated scf accuracy    <       0.00049444 Ry

     iteration #  8     ecut=    30.00 Ry     beta= 0.50
     Davidson diagonalization with overlap
     ethr =  2.58E-07,  avg # of iterations =  2.0

     total cpu time spent up to now is       19.2 secs

     total energy              =   -2099.67831194 Ry
     Harris-Foulkes estimate   =   -2099.67831086 Ry
     estimated scf accuracy    <       0.00001114 Ry

     iteration #  9     ecut=    30.00 Ry     beta= 0.50
     Davidson diagonalization with overlap
     ethr =  5.80E-09,  avg # of iterations =  4.0

     total cpu time spent up to now is       19.5 secs

     total energy              =   -2099.67831261 Ry
     Harris-Foulkes estimate   =   -2099.67831609 Ry
     estimated scf accuracy    <       0.00001719 Ry

     iteration # 10     ecut=    30.00 Ry     beta= 0.50
     Davidson diagonalization with overlap
     ethr =  5.80E-09,  avg # of iterations =  2.0

     total cpu time spent up to now is       19.7 secs

     total energy              =   -2099.67831177 Ry
     Harris-Foulkes estimate   =   -2099.67831342 Ry
     estimated scf accuracy    <       0.00000435 Ry

     iteration # 11     ecut=    30.00 Ry     beta= 0.50
     Davidson diagonalization with overlap
     ethr =  2.27E-09,  avg # of iterations =  2.0

     total cpu time spent up to now is       19.8 secs

     End of self-consistent calculation

          k = 0.0000 0.0000 0.0000 (  5669 PWs)   bands (ev):

   -77.2027 -77.2025 -77.2023 -77.2017 -42.5378 -42.5312 -42.5178 -42.5159
   -42.4981 -42.4914 -42.4906 -42.4880 -42.2538 -42.2492 -42.2443 -42.2431
   -34.8138 -34.8137 -34.7960 -34.7960 -13.5706 -13.2650 -13.2113 -13.0103
   -10.9361 -10.9122 -10.8035 -10.7833 -10.6793 -10.5748 -10.5441 -10.3884
   -10.3495 -10.3230 -10.2799 -10.2298  -0.7950  -0.3733  -0.2134  -0.1967
     0.5192   0.9838   1.0037   1.0822   1.4271   1.5781   2.1004   2.1891
     2.2651   2.3070   2.6056   2.6621   3.2774   3.8095   3.8975   3.9179
     4.0515   4.0739   4.2176   4.2182   4.3869   4.5897   4.5953   4.6360
     4.8375   4.8627   4.9081   5.0841   5.0876   5.2566   5.2913   5.5404
     5.5468   5.5784   5.8136   5.8187   5.9530   5.9838   6.0296   6.1348
     6.2201   6.4064   6.7320   7.0733   9.3021   9.3597   9.3877   9.4333
     9.5117   9.6577   9.6691   9.7022   9.7515   9.7594   9.8899   9.8983
    11.5522  11.5957  11.6186  11.9869  12.2396  12.2907  12.5114  12.5194
    13.0620  14.7862  15.1939  15.9975  16.0050  16.2538  16.3047  16.5073
    16.6897  16.8238  16.8492

     the Fermi energy is    11.0186 ev

!    total energy              =   -2099.67831240 Ry
     Harris-Foulkes estimate   =   -2099.67831245 Ry
     estimated scf accuracy    <       0.00000003 Ry

     The total energy is the sum of the following terms:

     one-electron contribution =    -862.89577788 Ry
     hartree contribution      =     538.49203319 Ry
     xc contribution           =    -293.78098662 Ry
     ewald contribution        =   -1024.93578219 Ry
     one-center paw contrib.   =    -456.55779890 Ry
     smearing contrib. (-TS)   =      -0.00000000 Ry

     convergence has been achieved in  11 iterations

     Forces acting on atoms (cartesian axes, Ry/au):

     atom    1 type  4   force =     0.00000000   -0.00000000    0.00000000
     atom    2 type  4   force =     0.00000000    0.00000000    0.00000000
     atom    3 type  4   force =     0.00000000    0.00000000    0.00000000
     atom    4 type  4   force =     0.00000000   -0.00000000    0.00000000
     atom    5 type  2   force =     0.00351529    0.00000000    0.02307076
     atom    6 type  2   force =    -0.00351529    0.00000000   -0.02307076
     atom    7 type  2   force =    -0.00351529   -0.00000000    0.02307076
     atom    8 type  2   force =     0.00351529   -0.00000000   -0.02307076
     atom    9 type  1   force =     0.00700554    0.00000000   -0.05929925
     atom   10 type  1   force =    -0.00700554    0.00000000    0.05929925
     atom   11 type  1   force =    -0.00700554   -0.00000000   -0.05929925
     atom   12 type  1   force =     0.00700554   -0.00000000    0.05929925
     atom   13 type  3   force =    -0.01818967    0.01536222   -0.00943598
     atom   14 type  3   force =     0.01818967   -0.01536222    0.00943598
     atom   15 type  3   force =     0.01818967   -0.01536222   -0.00943598
     atom   16 type  3   force =    -0.01818967    0.01536222    0.00943598
     atom   17 type  3   force =    -0.01818967   -0.01536222    0.00943598
     atom   18 type  3   force =     0.01818967    0.01536222   -0.00943598
     atom   19 type  3   force =     0.01818967    0.01536222    0.00943598
     atom   20 type  3   force =    -0.01818967   -0.01536222   -0.00943598
     atom   21 type  3   force =    -0.02426819   -0.00000000   -0.00352573
     atom   22 type  3   force =     0.02426819   -0.00000000    0.00352573
     atom   23 type  3   force =     0.02426819    0.00000000   -0.00352573
     atom   24 type  3   force =    -0.02426819    0.00000000    0.00352573
     atom   25 type  3   force =    -0.00914792    0.00000000    0.02789459
     atom   26 type  3   force =     0.00914792    0.00000000   -0.02789459
     atom   27 type  3   force =     0.00914792    0.00000000    0.02789459
     atom   28 type  3   force =    -0.00914792    0.00000000   -0.02789459

     Total force =     0.165953     Total SCF correction =     0.000477


     Computing stress (Cartesian axis) and pressure

          total   stress  (Ry/bohr**3)                   (kbar)     P=  -11.95
  -0.00015624   0.00000000   0.00000000        -22.98      0.00      0.00
   0.00000000  -0.00025878   0.00000000          0.00    -38.07      0.00
   0.00000000   0.00000000   0.00017137          0.00      0.00     25.21


     number of scf cycles    =   4
     number of bfgs steps    =   3

     enthalpy old            =   -2099.6664174945 Ry
     enthalpy new            =   -2099.6783124031 Ry

     CASE: enthalpy_new < enthalpy_old

     new trust radius        =       0.0263391483 bohr
     new conv_thr            =       0.0000010000 Ry

     new unit-cell volume =   1700.00857 a.u.^3 (   251.91528 Ang^3 )
     density =      4.15953 g/cm^3

CELL_PARAMETERS (angstrom)
   9.856870734   0.000000000   0.000000000
   0.000000000   5.763774989   0.000000000
   0.000000000   0.000000000   4.434130022

ATOMIC_POSITIONS (angstrom)
Li       0.000000000   0.000000000   0.000000000
Li       4.928435367  -0.000000000   2.217065011
Li       4.928435367   2.881887495   2.217065011
Li       0.000000000   2.881887495   0.000000000
Fe       2.211724735   4.322831242   2.154025923
Fe       7.645145999   1.440943747   2.280104099
Fe       2.716710632   1.440943747   4.371090934
Fe       7.140160101   4.322831242   0.063039088
P        0.948912223   1.440943747   1.862641688
P        8.907958511   4.322831242   2.571488333
P        3.979523144   4.322831242   4.079706699
P        5.877347589   1.440943747   0.354423322
O        1.664161959   0.199464473   1.200856107
O        8.192708775   5.564310516   3.233273915
O        3.264273408   5.564310516   3.417921118
O        6.592597326   0.199464473   1.016208904
O        6.592597326   2.682423021   1.016208904
O        3.264273408   3.081351968   3.417921118
O        8.192708775   3.081351968   3.233273915
O        1.664161959   2.682423021   1.200856107
O        0.485542349   4.322831242   3.158853504
O        9.371328385   1.440943747   1.275276518
O        4.442893018   1.440943747   0.941788493
O        5.413977715   4.322831242   3.492341529
O        0.960347937   1.440943747   3.381255312
O        8.896522797   4.322831242   1.052874710
O        3.968087430   4.322831242   1.164190301
O        5.888783304   1.440943747   3.269939721



     Writing output data file VLAB.save/
     Message from routine punch:
     wavefunctions written to file
     NEW-OLD atomic charge density approx. for the potential

     Check: negative core charge=   -0.002585
     extrapolated charge  191.94623, renormalised to  192.00000

     total cpu time spent up to now is       20.3 secs

     Self-consistent Calculation

     iteration #  1     ecut=    30.00 Ry     beta= 0.50
     Davidson diagonalization with overlap
     ethr =  1.00E-06,  avg # of iterations =  5.0

     total cpu time spent up to now is       20.6 secs

     total energy              =   -2099.68580799 Ry
     Harris-Foulkes estimate   =   -2099.89898879 Ry
     estimated scf accuracy    <       0.00261376 Ry

     iteration #  2     ecut=    30.00 Ry     beta= 0.50
     Davidson diagonalization with overlap
     ethr =  1.36E-06,  avg # of iterations =  5.0

     total cpu time spent up to now is       20.9 secs

     total energy              =   -2099.68617028 Ry
     Harris-Foulkes estimate   =   -2099.68642747 Ry
     estimated scf accuracy    <       0.00099430 Ry

     iteration #  3     ecut=    30.00 Ry     beta= 0.50
     Davidson diagonalization with overlap
     ethr =  5.18E-07,  avg # of iterations =  3.0

     total cpu time spent up to now is       21.1 secs

     total energy              =   -2099.68644615 Ry
     Harris-Foulkes estimate   =   -2099.68652103 Ry
     estimated scf accuracy    <       0.00050584 Ry

     iteration #  4     ecut=    30.00 Ry     beta= 0.50
     Davidson diagonalization with overlap
     ethr =  2.63E-07,  avg # of iterations =  2.0

     total cpu time spent up to now is       21.3 secs

     total energy              =   -2099.68655313 Ry
     Harris-Foulkes estimate   =   -2099.68653528 Ry
     estimated scf accuracy    <       0.00004610 Ry

     iteration #  5     ecut=    30.00 Ry     beta= 0.50
     Davidson diagonalization with overlap
     ethr =  2.40E-08,  avg # of iterations =  2.0

     total cpu time spent up to now is       21.4 secs

     total energy              =   -2099.68656431 Ry
     Harris-Foulkes estimate   =   -2099.68656248 Ry
     estimated scf accuracy    <       0.00000727 Ry

     iteration #  6     ecut=    30.00 Ry     beta= 0.50
     Davidson diagonalization with overlap
     ethr =  3.79E-09,  avg # of iterations =  3.0

     total cpu time spent up to now is       21.6 secs

     End of self-consistent calculation

          k = 0.0000 0.0000 0.0000 (  5669 PWs)   bands (ev):

   -77.2207 -77.2206 -77.2204 -77.2199 -42.5497 -42.5441 -42.5306 -42.5291
   -42.5218 -42.5156 -42.5129 -42.5121 -42.2767 -42.2709 -42.2661 -42.2644
   -34.7947 -34.7946 -34.7764 -34.7764 -13.5904 -13.2791 -13.2317 -13.0228
   -10.8467 -10.8167 -10.7270 -10.7078 -10.6894 -10.6693 -10.6397 -10.4584
   -10.4549 -10.4329 -10.3249 -10.2973  -0.7839  -0.3761  -0.2032  -0.1935
     0.4974   0.9543   0.9902   1.0666   1.4418   1.5612   2.0848   2.2006
     2.2638   2.3234   2.5576   2.5912   3.2975   3.8792   3.8969   3.9326
     4.0205   4.1557   4.1731   4.2201   4.3770   4.5549   4.6230   4.6470
     4.8089   4.8717   4.9509   5.0405   5.1363   5.2709   5.2828   5.4967
     5.5356   5.5789   5.7616   5.8295   5.9843   6.0098   6.0242   6.1213
     6.2697   6.3811   6.7550   7.0394   9.2952   9.3399   9.3657   9.4077
     9.4865   9.6363   9.6514   9.6757   9.7102   9.7326   9.8508   9.8621
    11.5380  11.5791  11.5986  11.9596  12.2093  12.2504  12.4702  12.4786
    13.0847  14.7505  15.2281  16.0523  16.0881  16.3318  16.3361  16.5974
    16.7657  16.7732  16.8356

     the Fermi energy is    11.0047 ev

!    total energy              =   -2099.68656614 Ry
     Harris-Foulkes estimate   =   -2099.68656583 Ry
     estimated scf accuracy    <       0.00000079 Ry

     The total energy is the sum of the following terms:

     one-electron contribution =    -862.25368933 Ry
     hartree contribution      =     538.12606847 Ry
     xc contribution           =    -293.82775134 Ry
     ewald contribution        =   -1025.17857835 Ry
     one-center paw contrib.   =    -456.55261560 Ry
     smearing contrib. (-TS)   =      -0.00000000 Ry

     convergence has been achieved in   6 iterations

     Forces acting on atoms (cartesian axes, Ry/au):

     atom    1 type  4   force =     0.00000000    0.00000000    0.00000000
     atom    2 type  4   force =     0.00000000   -0.00000000    0.00000000
     atom    3 type  4   force =     0.00000000    0.00000000   -0.00000000
     atom    4 type  4   force =     0.00000000    0.00000000   -0.00000000
     atom    5 type  2   force =     0.00514947    0.00000000    0.01398781
     atom    6 type  2   force =    -0.00514947    0.00000000   -0.01398781
     atom    7 type  2   force =    -0.00514947   -0.00000000    0.01398781
     atom    8 type  2   force =     0.00514947   -0.00000000   -0.01398781
     atom    9 type  1   force =     0.00437866   -0.00000000   -0.00108699
     atom   10 type  1   force =    -0.00437866    0.00000000    0.00108699
     atom   11 type  1   force =    -0.00437866    0.00000000   -0.00108699
     atom   12 type  1   force =     0.00437866   -0.00000000    0.00108699
     atom   13 type  3   force =    -0.00662683   -0.00204097   -0.01035281
     atom   14 type  3   force =     0.00662683    0.00204097    0.01035281
     atom   15 type  3   force =     0.00662683    0.00204097   -0.01035281
     atom   16 type  3   force =    -0.00662683   -0.00204097    0.01035281
     atom   17 type  3   force =    -0.00662683    0.00204097    0.01035281
     atom   18 type  3   force =     0.00662683   -0.00204097   -0.01035281
     atom   19 type  3   force =     0.00662683   -0.00204097    0.01035281
     atom   20 type  3   force =    -0.00662683    0.00204097   -0.01035281
     atom   21 type  3   force =    -0.00037862   -0.00000000   -0.00109976
     atom   22 type  3   force =     0.00037862   -0.00000000    0.00109976
     atom   23 type  3   force =     0.00037862    0.00000000   -0.00109976
     atom   24 type  3   force =    -0.00037862    0.00000000    0.00109976
     atom   25 type  3   force =    -0.00602174   -0.00000000   -0.01215740
     atom   26 type  3   force =     0.00602174    0.00000000    0.01215740
     atom   27 type  3   force =     0.00602174    0.00000000   -0.01215740
     atom   28 type  3   force =    -0.00602174    0.00000000    0.01215740

     Total force =     0.054350     Total SCF correction =     0.001640


     Computing stress (Cartesian axis) and pressure

          total   stress  (Ry/bohr**3)                   (kbar)     P=   -9.16
  -0.00000034   0.00000000   0.00000000         -0.05      0.00      0.00
   0.00000000  -0.00007429   0.00000000          0.00    -10.93      0.00
   0.00000000   0.00000000  -0.00011209          0.00      0.00    -16.49


     number of scf cycles    =   5
     number of bfgs steps    =   4

     enthalpy old            =   -2099.6783124031 Ry
     enthalpy new            =   -2099.6865661442 Ry

     CASE: enthalpy_new < enthalpy_old

     new trust radius        =       0.0187223580 bohr
     new conv_thr            =       0.0000010000 Ry

     new unit-cell volume =   1693.96325 a.u.^3 (   251.01945 Ang^3 )
     density =      4.17437 g/cm^3

CELL_PARAMETERS (angstrom)
   9.862521850   0.000000000   0.000000000
   0.000000000   5.752262973   0.000000000
   0.000000000   0.000000000   4.424667781

ATOMIC_POSITIONS (angstrom)
Li       0.000000000   0.000000000   0.000000000
Li       4.931260925  -0.000000000   2.212333891
Li       4.931260925   2.876131486   2.212333891
Li       0.000000000   2.876131486   0.000000000
Fe       2.219070015   4.314197230   2.157239926
Fe       7.643451834   1.438065743   2.267427855
Fe       2.712190909   1.438065743   4.369573817
Fe       7.150330940   4.314197230   0.055093964
P        0.952595462   1.438065743   1.854711036
P        8.909926388   4.314197230   2.569956746
P        3.978665463   4.314197230   4.067044927
P        5.883856386   1.438065743   0.357622855
O        1.660504930   0.197190732   1.189963074
O        8.202016919   5.555072241   3.234704707
O        3.270755994   5.555072241   3.402296965
O        6.591765855   0.197190732   1.022370817
O        6.591765855   2.678940755   1.022370817
O        3.270755994   3.073322218   3.402296965
O        8.202016919   3.073322218   3.234704707
O        1.660504930   2.678940755   1.189963074
O        0.483792389   4.314197230   3.152579027
O        9.378729461   1.438065743   1.272088755
O        4.447468536   1.438065743   0.940245136
O        5.415053314   4.314197230   3.484422645
O        0.956506012   1.438065743   3.371065871
O        8.906015838   4.314197230   1.053601910
O        3.974754913   4.314197230   1.158731981
O        5.887766936   1.438065743   3.265935801



     Writing output data file VLAB.save/
     Message from routine punch:
     wavefunctions written to file
     NEW-OLD atomic charge density approx. for the potential

     Check: negative core charge=   -0.002569
     extrapolated charge  191.32125, renormalised to  192.00000

     total cpu time spent up to now is       22.1 secs

     Self-consistent Calculation

     iteration #  1     ecut=    30.00 Ry     beta= 0.50
     Davidson diagonalization with overlap
     ethr =  1.00E-06,  avg # of iterations =  5.0

     total cpu time spent up to now is       22.4 secs

     total energy              =   -2099.62927496 Ry
     Harris-Foulkes estimate   =   -2102.32179760 Ry
     estimated scf accuracy    <       0.06274526 Ry

     iteration #  2     ecut=    30.00 Ry     beta= 0.50
     Davidson diagonalization with overlap
     ethr =  3.27E-05,  avg # of iterations =  3.0

     total cpu time spent up to now is       22.6 secs

     total energy              =   -2099.66630088 Ry
     Harris-Foulkes estimate   =   -2099.75495287 Ry
     estimated scf accuracy    <       0.34121566 Ry

     iteration #  3     ecut=    30.00 Ry     beta= 0.50
     Davidson diagonalization with overlap
     ethr =  3.27E-05,  avg # of iterations =  3.0

     total cpu time spent up to now is       22.9 secs

     total energy              =   -2099.68880340 Ry
     Harris-Foulkes estimate   =   -2099.69377529 Ry
     estimated scf accuracy    <       0.02911405 Ry

     iteration #  4     ecut=    30.00 Ry     beta= 0.50
     Davidson diagonalization with overlap
     ethr =  1.52E-05,  avg # of iterations =  2.0

     total cpu time spent up to now is       23.0 secs

     total energy              =   -2099.68733185 Ry
     Harris-Foulkes estimate   =   -2099.69047042 Ry
     estimated scf accuracy    <       0.00849612 Ry

     iteration #  5     ecut=    30.00 Ry     beta= 0.50
     Davidson diagonalization with overlap
     ethr =  4.43E-06,  avg # of iterations =  4.0

     total cpu time spent up to now is       23.3 secs

     total energy              =   -2099.68962332 Ry
     Harris-Foulkes estimate   =   -2099.68965703 Ry
     estimated scf accuracy    <       0.00053577 Ry

     iteration #  6     ecut=    30.00 Ry     beta= 0.50
     Davidson diagonalization with overlap
     ethr =  2.79E-07,  avg # of iterations =  4.0

     total cpu time spent up to now is       23.5 secs

     total energy              =   -2099.68959739 Ry
     Harris-Foulkes estimate   =   -2099.68968729 Ry
     estimated scf accuracy    <       0.00029332 Ry

     iteration #  7     ecut=    30.00 Ry     beta= 0.50
     Davidson diagonalization with overlap
     ethr =  1.53E-07,  avg # of iterations =  2.0

     total cpu time spent up to now is       23.7 secs

     total energy              =   -2099.68962206 Ry
     Harris-Foulkes estimate   =   -2099.68962704 Ry
     estimated scf accuracy    <       0.00001695 Ry

     iteration #  8     ecut=    30.00 Ry     beta= 0.50
     Davidson diagonalization with overlap
     ethr =  8.83E-09,  avg # of iterations =  4.0

     total cpu time spent up to now is       23.9 secs

     End of self-consistent calculation

          k = 0.0000 0.0000 0.0000 (  5669 PWs)   bands (ev):

   -77.1703 -77.1703 -77.1702 -77.1695 -42.4907 -42.4863 -42.4784 -42.4732
   -42.4727 -42.4721 -42.4692 -42.4678 -42.2431 -42.2358 -42.2295 -42.2279
   -34.7245 -34.7244 -34.7058 -34.7057 -13.5725 -13.2597 -13.2184 -13.0037
   -10.8174 -10.7951 -10.6785 -10.6675 -10.6596 -10.6521 -10.6311 -10.4541
   -10.4297 -10.3916 -10.2522 -10.2308  -0.7329  -0.3429  -0.1525  -0.1500
     0.5311   0.9822   1.0182   1.0948   1.4851   1.6069   2.1198   2.2430
     2.3014   2.3726   2.5998   2.6260   3.3278   3.9065   3.9426   3.9651
     4.0594   4.1862   4.2033   4.2732   4.4173   4.5623   4.6867   4.6883
     4.8213   4.8899   5.0015   5.0691   5.1690   5.3452   5.3657   5.5191
     5.5707   5.6215   5.7790   5.9050   6.0508   6.0575   6.0638   6.1499
     6.3276   6.4179   6.8114   7.0788   9.3453   9.3816   9.3908   9.4234
     9.5295   9.6843   9.7083   9.7266   9.7489   9.7748   9.8929   9.9030
    11.6108  11.6312  11.6659  12.0044  12.2535  12.2930  12.5499  12.5611
    13.1626  14.7902  15.3324  16.1382  16.1996  16.4393  16.4489  16.6516
    16.7809  16.8575  16.9062

     the Fermi energy is    11.0741 ev

!    total energy              =   -2099.68962449 Ry
     Harris-Foulkes estimate   =   -2099.68962498 Ry
     estimated scf accuracy    <       0.00000084 Ry

     The total energy is the sum of the following terms:

     one-electron contribution =    -859.85852406 Ry
     hartree contribution      =     537.28086195 Ry
     xc contribution           =    -293.88884170 Ry
     ewald contribution        =   -1026.67179901 Ry
     one-center paw contrib.   =    -456.55132168 Ry
     smearing contrib. (-TS)   =      -0.00000000 Ry

     convergence has been achieved in   8 iterations

     Forces acting on atoms (cartesian axes, Ry/au):

     atom    1 type  4   force =     0.00000000    0.00000000    0.00000000
     atom    2 type  4   force =     0.00000000    0.00000000    0.00000000
     atom    3 type  4   force =     0.00000000    0.00000000   -0.00000000
     atom    4 type  4   force =     0.00000000   -0.00000000   -0.00000000
     atom    5 type  2   force =     0.02443880    0.00000000   -0.00938360
     atom    6 type  2   force =    -0.02443880    0.00000000    0.00938360
     atom    7 type  2   force =    -0.02443880    0.00000000   -0.00938360
     atom    8 type  2   force =     0.02443880   -0.00000000    0.00938360
     atom    9 type  1   force =    -0.00584996    0.00000000   -0.00002468
     atom   10 type  1   force =     0.00584996   -0.00000000    0.00002468
     atom   11 type  1   force =     0.00584996    0.00000000   -0.00002468
     atom   12 type  1   force =    -0.00584996    0.00000000    0.00002468
     atom   13 type  3   force =    -0.00343522   -0.00838333   -0.00657401
     atom   14 type  3   force =     0.00343522    0.00838333    0.00657401
     atom   15 type  3   force =     0.00343522    0.00838333   -0.00657401
     atom   16 type  3   force =    -0.00343522   -0.00838333    0.00657401
     atom   17 type  3   force =    -0.00343522    0.00838333    0.00657401
     atom   18 type  3   force =     0.00343522   -0.00838333   -0.00657401
     atom   19 type  3   force =     0.00343522   -0.00838333    0.00657401
     atom   20 type  3   force =    -0.00343522    0.00838333   -0.00657401
     atom   21 type  3   force =     0.00223210    0.00000000   -0.00050985
     atom   22 type  3   force =    -0.00223210    0.00000000    0.00050985
     atom   23 type  3   force =    -0.00223210    0.00000000   -0.00050985
     atom   24 type  3   force =     0.00223210    0.00000000    0.00050985
     atom   25 type  3   force =    -0.00176649    0.00000000   -0.00853435
     atom   26 type  3   force =     0.00176649    0.00000000    0.00853435
     atom   27 type  3   force =     0.00176649    0.00000000   -0.00853435
     atom   28 type  3   force =    -0.00176649    0.00000000    0.00853435

     Total force =     0.064848     Total SCF correction =     0.001526


     Computing stress (Cartesian axis) and pressure

          total   stress  (Ry/bohr**3)                   (kbar)     P=    4.13
   0.00004485   0.00000000   0.00000000          6.60      0.00      0.00
   0.00000000   0.00002260   0.00000000          0.00      3.32      0.00
   0.00000000   0.00000000   0.00001671          0.00      0.00      2.46


     number of scf cycles    =   6
     number of bfgs steps    =   5

     enthalpy old            =   -2099.6865661442 Ry
     enthalpy new            =   -2099.6896244871 Ry

     CASE: enthalpy_new < enthalpy_old

     new trust radius        =       0.0561044132 bohr
     new conv_thr            =       0.0000010000 Ry

     new unit-cell volume =   1683.26984 a.u.^3 (   249.43485 Ang^3 )
     density =      4.20089 g/cm^3

CELL_PARAMETERS (angstrom)
   9.879196280   0.000000000   0.000000000
   0.000000000   5.727421335   0.000000000
   0.000000000   0.000000000   4.408353261

ATOMIC_POSITIONS (angstrom)
Li       0.000000000   0.000000000   0.000000000
Li       4.939598140  -0.000000000   2.204176630
Li       4.939598140   2.863710667   2.204176630
Li       0.000000000   2.863710667  -0.000000000
Fe       2.250679479   4.295566001   2.159640396
Fe       7.628516801   1.431855334   2.248712865
Fe       2.688918661   1.431855334   4.363817026
Fe       7.190277619   4.295566001   0.044536235
P        0.957821046   1.431855334   1.836698330
P        8.921375235   4.295566001   2.571654931
P        3.981777094   4.295566001   4.040874961
P        5.897419186   1.431855334   0.367478300
O        1.651440571   0.187964323   1.163675069
O        8.227755709   5.539457012   3.244678191
O        3.288157569   5.539457012   3.367851700
O        6.591038711   0.187964323   1.040501561
O        6.591038711   2.675746344   1.040501561
O        3.288157569   3.051674990   3.367851700
O        8.227755709   3.051674990   3.244678191
O        1.651440571   2.675746344   1.163675069
O        0.479710390   4.295566001   3.142384667
O        9.399485891   1.431855334   1.265968594
O        4.459887750   1.431855334   0.938208036
O        5.419308530   4.295566001   3.470145225
O        0.947766361   1.431855334   3.351815214
O        8.931429919   4.295566001   1.056538047
O        3.991831779   4.295566001   1.147638584
O        5.887364502   1.431855334   3.260714677



     Writing output data file VLAB.save/
     Message from routine punch:
     wavefunctions written to file
     NEW-OLD atomic charge density approx. for the potential

     Check: negative core charge=   -0.002536
     extrapolated charge  190.79174, renormalised to  192.00000

     total cpu time spent up to now is       24.3 secs

     Self-consistent Calculation

     iteration #  1     ecut=    30.00 Ry     beta= 0.50
     Davidson diagonalization with overlap
     ethr =  1.00E-06,  avg # of iterations = 11.0

     total cpu time spent up to now is       24.8 secs

     total energy              =   -2099.49676108 Ry
     Harris-Foulkes estimate   =   -2104.32283831 Ry
     estimated scf accuracy    <       0.21144949 Ry

     iteration #  2     ecut=    30.00 Ry     beta= 0.50
     Davidson diagonalization with overlap
     ethr =  1.10E-04,  avg # of iterations =  3.0

     total cpu time spent up to now is       25.0 secs

     total energy              =   -2099.60636683 Ry
     Harris-Foulkes estimate   =   -2099.89937586 Ry
     estimated scf accuracy    <       1.14969359 Ry

     iteration #  3     ecut=    30.00 Ry     beta= 0.50
     Davidson diagonalization with overlap
     ethr =  1.10E-04,  avg # of iterations =  3.0

     total cpu time spent up to now is       25.2 secs

     total energy              =   -2099.68359884 Ry
     Harris-Foulkes estimate   =   -2099.70157808 Ry
     estimated scf accuracy    <       0.09093068 Ry

     iteration #  4     ecut=    30.00 Ry     beta= 0.50
     Davidson diagonalization with overlap
     ethr =  4.74E-05,  avg # of iterations =  2.0

     total cpu time spent up to now is       25.4 secs

     total energy              =   -2099.69045470 Ry
     Harris-Foulkes estimate   =   -2099.69263460 Ry
     estimated scf accuracy    <       0.01072977 Ry

     iteration #  5     ecut=    30.00 Ry     beta= 0.50
     Davidson diagonalization with overlap
     ethr =  5.59E-06,  avg # of iterations =  4.0

     total cpu time spent up to now is       25.7 secs

     total energy              =   -2099.69411402 Ry
     Harris-Foulkes estimate   =   -2099.69580766 Ry
     estimated scf accuracy    <       0.00604183 Ry

     iteration #  6     ecut=    30.00 Ry     beta= 0.50
     Davidson diagonalization with overlap
     ethr =  3.15E-06,  avg # of iterations =  2.0

     total cpu time spent up to now is       25.9 secs

     total energy              =   -2099.69456968 Ry
     Harris-Foulkes estimate   =   -2099.69468983 Ry
     estimated scf accuracy    <       0.00042317 Ry

     iteration #  7     ecut=    30.00 Ry     beta= 0.50
     Davidson diagonalization with overlap
     ethr =  2.20E-07,  avg # of iterations =  3.0

     total cpu time spent up to now is       26.1 secs

     total energy              =   -2099.69461627 Ry
     Harris-Foulkes estimate   =   -2099.69462590 Ry
     estimated scf accuracy    <       0.00003176 Ry

     iteration #  8     ecut=    30.00 Ry     beta= 0.50
     Davidson diagonalization with overlap
     ethr =  1.65E-08,  avg # of iterations =  3.0

     total cpu time spent up to now is       26.3 secs

     total energy              =   -2099.69462471 Ry
     Harris-Foulkes estimate   =   -2099.69462416 Ry
     estimated scf accuracy    <       0.00000163 Ry

     iteration #  9     ecut=    30.00 Ry     beta= 0.50
     Davidson diagonalization with overlap
     ethr =  8.49E-10,  avg # of iterations =  4.0

     total cpu time spent up to now is       26.5 secs

     total energy              =   -2099.69462540 Ry
     Harris-Foulkes estimate   =   -2099.69462646 Ry
     estimated scf accuracy    <       0.00000677 Ry

     iteration # 10     ecut=    30.00 Ry     beta= 0.50
     Davidson diagonalization with overlap
     ethr =  8.49E-10,  avg # of iterations =  2.0

     total cpu time spent up to now is       26.7 secs

     total energy              =   -2099.69462480 Ry
     Harris-Foulkes estimate   =   -2099.69462562 Ry
     estimated scf accuracy    <       0.00000238 Ry

     iteration # 11     ecut=    30.00 Ry     beta= 0.50
     Davidson diagonalization with overlap
     ethr =  8.49E-10,  avg # of iterations =  3.0

     total cpu time spent up to now is       26.9 secs

     End of self-consistent calculation

          k = 0.0000 0.0000 0.0000 (  5669 PWs)   bands (ev):

   -77.0819 -77.0817 -77.0814 -77.0812 -42.4119 -42.4118 -42.4071 -42.3977
   -42.3737 -42.3734 -42.3627 -42.3606 -42.1826 -42.1729 -42.1661 -42.1629
   -34.5946 -34.5946 -34.5748 -34.5748 -13.5259 -13.2119 -13.1771 -12.9530
   -10.7614 -10.7501 -10.6295 -10.6206 -10.6204 -10.6041 -10.5159 -10.4388
   -10.4173 -10.2693 -10.1176 -10.0982  -0.6343  -0.3059  -0.0979  -0.0535
     0.5819   1.0176   1.0593   1.1331   1.5635   1.7208   2.1872   2.3373
     2.3757   2.4915   2.6955   2.6967   3.3815   3.9564   4.0207   4.0338
     4.1386   4.2423   4.2645   4.3733   4.4886   4.5677   4.7545   4.8146
     4.8365   4.9084   5.0853   5.1316   5.2251   5.5020   5.5320   5.5614
     5.6320   5.6895   5.8005   6.0582   6.1285   6.1648   6.1847   6.2119
     6.4515   6.4991   6.9221   7.1390   9.4003   9.4424   9.4457   9.4629
     9.5833   9.7735   9.7954   9.8089   9.8091   9.8341   9.9638   9.9725
    11.7212  11.7691  11.8039  12.0696  12.3167  12.3712  12.7256  12.7461
    13.2677  14.7871  15.4982  16.2695  16.3917  16.6109  16.6346  16.6535
    16.7261  16.8778  17.1749

     the Fermi energy is    11.3315 ev

!    total energy              =   -2099.69462513 Ry
     Harris-Foulkes estimate   =   -2099.69462516 Ry
     estimated scf accuracy    <       0.00000003 Ry

     The total energy is the sum of the following terms:

     one-electron contribution =    -855.50390412 Ry
     hartree contribution      =     535.68000206 Ry
     xc contribution           =    -293.97281012 Ry
     ewald contribution        =   -1029.34703602 Ry
     one-center paw contrib.   =    -456.55087694 Ry
     smearing contrib. (-TS)   =      -0.00000000 Ry

     convergence has been achieved in  11 iterations

     Forces acting on atoms (cartesian axes, Ry/au):

     atom    1 type  4   force =     0.00000000    0.00000000    0.00000000
     atom    2 type  4   force =     0.00000000    0.00000000    0.00000000
     atom    3 type  4   force =     0.00000000    0.00000000    0.00000000
     atom    4 type  4   force =     0.00000000    0.00000000    0.00000000
     atom    5 type  2   force =     0.01823696    0.00000000   -0.05247805
     atom    6 type  2   force =    -0.01823696    0.00000000    0.05247805
     atom    7 type  2   force =    -0.01823696   -0.00000000   -0.05247805
     atom    8 type  2   force =     0.01823696   -0.00000000    0.05247805
     atom    9 type  1   force =    -0.02128035    0.00000000    0.00468343
[...]
P        0.919869222   1.430065151   1.832236990
P        8.959468842   4.290195452   2.596545648
P        4.019799810   4.290195452   4.046628309
P        5.859538254   1.430065151   0.382154329
O        1.620763128   0.175208029   1.166253388
O        8.258574935   5.545052573   3.262529250
O        3.318905904   5.545052573   3.380644707
O        6.560432160   0.175208029   1.048137931
O        6.560432160   2.684922272   1.048137931
O        3.318905904   3.035338331   3.380644707
O        8.258574935   3.035338331   3.262529250
O        1.620763128   2.684922272   1.166253388
O        0.518692947   4.290195452   3.165258532
O        9.360645117   1.430065151   1.263524106
O        4.420976085   1.430065151   0.950867213
O        5.458361979   4.290195452   3.477915425
O        0.945772013   1.430065151   3.344695860
O        8.933566050   4.290195452   1.084086778
O        3.993897019   4.290195452   1.130304541
O        5.885441045   1.430065151   3.298478097
End final coordinates



     Writing output data file VLAB.save/
     Message from routine punch:
     wavefunctions written to file

     A final scf calculation at the relaxed structure.
     The G-vectors are recalculated for the final unit cell
     Results may differ from those at the preceding step.
 
     Parallelization info
     --------------------
     sticks:   dense  smooth     PW     G-vecs:    dense   smooth      PW
     Min          40      40      9                  782      782      95
     Max          42      42     10                  784      784      98
     Sum        1925    1925    479                37597    37597    4701
 


     bravais-lattice index     =            0
     lattice parameter (alat)  =      19.7533  a.u.
     unit-cell volume          =    1688.9805 (a.u.)^3
     number of atoms/cell      =           28
     number of atomic types    =            4
     number of electrons       =       192.00
     number of Kohn-Sham states=          115
     kinetic-energy cutoff     =      30.0000  Ry
     charge density cutoff     =     120.0000  Ry
     convergence threshold     =      1.0E-07
     mixing beta               =       0.5000
     number of iterations used =            8  plain     mixing
     Exchange-correlation      =  SLA  PW   PBX  PBC ( 1  4  3  4 0 0)

     celldm(1)=  19.753284  celldm(2)=   0.000000  celldm(3)=   0.000000
     celldm(4)=   0.000000  celldm(5)=   0.000000  celldm(6)=   0.000000

     crystal axes: (cart. coord. in units of alat)
               a(1) = (   0.945121   0.000000   0.000000 )  
               a(2) = (   0.000000   0.547237   0.000000 )  
               a(3) = (   0.000000   0.000000   0.423686 )  

     reciprocal axes: (cart. coord. in units 2 pi/alat)
               b(1) = (  1.058066  0.000000  0.000000 )  
               b(2) = (  0.000000  1.827362  0.000000 )  
               b(3) = (  0.000000  0.000000  2.360239 )  


     PseudoPot. # 1 for P  read from file:
     ./P.pbe-n-rrkjus_psl.1.0.0.UPF
     MD5 check sum: 8b930f418f0a4573dca56cd030ffe088
     Pseudo is Ultrasoft + core correction, Zval =  5.0
     Generated using "atomic" code by A. Dal Corso v.5.1
     Using radial grid of 1147 points,  6 beta functions with: 
                l(1) =   0
                l(2) =   0
                l(3) =   1
                l(4) =   1
                l(5) =   2
                l(6) =   2
     Q(r) pseudized with 0 coefficients 


     PseudoPot. # 2 for Fe read from file:
     ./Fe.pbe-spn-kjpaw_psl.0.2.1.UPF
     MD5 check sum: e86618425769142926afa95317d90200
     Pseudo is Projector augmented-wave + core cor, Zval = 16.0
     Generated using "atomic" code by A. Dal Corso v.5.0.99 svn rev. 10869
     Shape of augmentation charge: PSQ
     Using radial grid of 1191 points,  6 beta functions with: 
                l(1) =   0
                l(2) =   0
                l(3) =   1
                l(4) =   1
                l(5) =   2
                l(6) =   2
     Q(r) pseudized with 0 coefficients 


     PseudoPot. # 3 for O  read from file:
     ./O.pbe-n-kjpaw_psl.0.1.UPF
     MD5 check sum: 0234752ac141de4415c5fc33072bef88
     Pseudo is Projector augmented-wave + core cor, Zval =  6.0
     Generated using "atomic" code by A. Dal Corso v.5.0.99 svn rev. 10869
     Shape of augmentation charge: BESSEL
     Using radial grid of 1095 points,  4 beta functions with: 
                l(1) =   0
                l(2) =   0
                l(3) =   1
                l(4) =   1
     Q(r) pseudized with 0 coefficients 


     PseudoPot. # 4 for Li read from file:
     ./li_pbe_v1.4.uspp.F.UPF
     MD5 check sum: e912e257baa3777c20ea3d68f190483c
     Pseudo is Ultrasoft, Zval =  3.0
     Generated by new atomic code, or converted to UPF format
     Using radial grid of  751 points,  5 beta functions with: 
                l(1) =   0
                l(2) =   0
                l(3) =   0
                l(4) =   1
                l(5) =   1
     Q(r) pseudized with 10 coefficients,  rinner =    1.150   1.150   1.150


     atomic species   valence    mass     pseudopotential
        P              5.00    30.97376     P ( 1.00)
        Fe            16.00    55.84500     Fe( 1.00)
        O              6.00    15.99940     O ( 1.00)
        Li             3.00     6.94100     Li( 1.00)

      8 Sym. Ops., with inversion, found ( 6 have fractional translation)



   Cartesian axes

     site n.     atom                  positions (alat units)
         1           Li  tau(   1) = (   0.0000000   0.0000000   0.0000000  )
         2           Li  tau(   2) = (   0.4725605  -0.0000000   0.2118429  )
         3           Li  tau(   3) = (   0.4725605   0.2736185   0.2118429  )
         4           Li  tau(   4) = (   0.0000000   0.2736185  -0.0000000  )
         5           Fe  tau(   5) = (   0.2164643   0.4104277   0.2066478  )
         6           Fe  tau(   6) = (   0.7286567   0.1368092   0.2170380  )
         7           Fe  tau(   7) = (   0.2560962   0.1368092   0.4184907  )
         8           Fe  tau(   8) = (   0.6890248   0.4104277   0.0051951  )
         9           P   tau(   9) = (   0.0880006   0.1368092   0.1752836  )
        10           P   tau(  10) = (   0.8571204   0.4104277   0.2484022  )
        11           P   tau(  11) = (   0.3845599   0.4104277   0.3871265  )
        12           P   tau(  12) = (   0.5605611   0.1368092   0.0365593  )
        13           O   tau(  13) = (   0.1550526   0.0167615   0.1115713  )
        14           O   tau(  14) = (   0.7900684   0.5304754   0.3121145  )
        15           O   tau(  15) = (   0.3175079   0.5304754   0.3234142  )
        16           O   tau(  16) = (   0.6276131   0.0167615   0.1002716  )
        17           O   tau(  17) = (   0.6276131   0.2568569   0.1002716  )
        18           O   tau(  18) = (   0.3175079   0.2903800   0.3234142  )
        19           O   tau(  19) = (   0.7900684   0.2903800   0.3121145  )
        20           O   tau(  20) = (   0.1550526   0.2568569   0.1115713  )
        21           O   tau(  21) = (   0.0496215   0.4104277   0.3028090  )
        22           O   tau(  22) = (   0.8954995   0.1368092   0.1208768  )
        23           O   tau(  23) = (   0.4229390   0.1368092   0.0909661  )
        24           O   tau(  24) = (   0.5221820   0.4104277   0.3327197  )
        25           O   tau(  25) = (   0.0904786   0.1368092   0.3199751  )
        26           O   tau(  26) = (   0.8546424   0.4104277   0.1037107  )
        27           O   tau(  27) = (   0.3820819   0.4104277   0.1081322  )
        28           O   tau(  28) = (   0.5630391   0.1368092   0.3155536  )

     number of k points=     1  gaussian smearing, width (Ry)=  0.0020
                       cart. coord. in units 2pi/alat
        k(    1) = (   0.0000000   0.0000000   0.0000000), wk =   2.0000000

     Dense  grid:    37597 G-vectors     FFT dimensions: (  72,  40,  30)

     Estimated max dynamical RAM per process >      26.66 MB

     Estimated total dynamical RAM >       1.25 GB

     Check: negative core charge=   -0.003809

     Initial potential from superposition of free atoms

     starting charge  190.19461, renormalised to  192.00000
     Starting wfcs are  152 randomized atomic wfcs
     Checking if some PAW data can be deallocated... 

     total cpu time spent up to now is       50.9 secs

     Self-consistent Calculation

     iteration #  1     ecut=    30.00 Ry     beta= 0.50
     Davidson diagonalization with overlap
     ethr =  1.00E-06,  avg # of iterations = 14.0

     total cpu time spent up to now is       51.6 secs

     total energy              =   -2096.90749525 Ry
     Harris-Foulkes estimate   =   -2100.23681596 Ry
     estimated scf accuracy    <       5.60301993 Ry

     iteration #  2     ecut=    30.00 Ry     beta= 0.50
     Davidson diagonalization with overlap
     ethr =  2.92E-03,  avg # of iterations =  3.0

     total cpu time spent up to now is       51.8 secs

     total energy              =   -2095.09403024 Ry
     Harris-Foulkes estimate   =   -2100.41916163 Ry
     estimated scf accuracy    <      18.11160065 Ry

     iteration #  3     ecut=    30.00 Ry     beta= 0.50
     Davidson diagonalization with overlap
     ethr =  2.92E-03,  avg # of iterations =  2.0

     total cpu time spent up to now is       52.0 secs

     total energy              =   -2098.84498567 Ry
     Harris-Foulkes estimate   =   -2099.20721520 Ry
     estimated scf accuracy    <       1.66136569 Ry

     iteration #  4     ecut=    30.00 Ry     beta= 0.50
     Davidson diagonalization with overlap
     ethr =  8.65E-04,  avg # of iterations =  2.0

     total cpu time spent up to now is       52.2 secs

     total energy              =   -2098.90315087 Ry
     Harris-Foulkes estimate   =   -2098.97806872 Ry
     estimated scf accuracy    <       0.31739059 Ry

     iteration #  5     ecut=    30.00 Ry     beta= 0.50
     Davidson diagonalization with overlap
     ethr =  1.65E-04,  avg # of iterations =  2.0

     negative rho (up, down):  1.880E-05 0.000E+00

     total cpu time spent up to now is       52.3 secs

     total energy              =   -2098.94964347 Ry
     Harris-Foulkes estimate   =   -2098.95117987 Ry
     estimated scf accuracy    <       0.00845067 Ry

     iteration #  6     ecut=    30.00 Ry     beta= 0.50
     Davidson diagonalization with overlap
     ethr =  4.40E-06,  avg # of iterations =  5.0

     negative rho (up, down):  3.764E-05 0.000E+00

     total cpu time spent up to now is       52.6 secs

     total energy              =   -2098.95192327 Ry
     Harris-Foulkes estimate   =   -2098.95245171 Ry
     estimated scf accuracy    <       0.00203259 Ry

     iteration #  7     ecut=    30.00 Ry     beta= 0.50
     Davidson diagonalization with overlap
     ethr =  1.06E-06,  avg # of iterations =  2.0

     negative rho (up, down):  4.996E-05 0.000E+00

     total cpu time spent up to now is       52.8 secs

     total energy              =   -2098.95234984 Ry
     Harris-Foulkes estimate   =   -2098.95237065 Ry
     estimated scf accuracy    <       0.00038602 Ry

     iteration #  8     ecut=    30.00 Ry     beta= 0.50
     Davidson diagonalization with overlap
     ethr =  2.01E-07,  avg # of iterations =  2.0

     negative rho (up, down):  5.420E-05 0.000E+00

     total cpu time spent up to now is       52.9 secs

     total energy              =   -2098.95235788 Ry
     Harris-Foulkes estimate   =   -2098.95237664 Ry
     estimated scf accuracy    <       0.00005914 Ry

     iteration #  9     ecut=    30.00 Ry     beta= 0.50
     Davidson diagonalization with overlap
     ethr =  3.08E-08,  avg # of iterations =  3.0

     negative rho (up, down):  5.490E-05 0.000E+00

     total cpu time spent up to now is       53.1 secs

     total energy              =   -2098.95237075 Ry
     Harris-Foulkes estimate   =   -2098.95237206 Ry
     estimated scf accuracy    <       0.00000212 Ry

     iteration # 10     ecut=    30.00 Ry     beta= 0.50
     Davidson diagonalization with overlap
     ethr =  1.10E-09,  avg # of iterations =  4.0

     negative rho (up, down):  5.507E-05 0.000E+00

     total cpu time spent up to now is       53.4 secs

     total energy              =   -2098.95237182 Ry
     Harris-Foulkes estimate   =   -2098.95237197 Ry
     estimated scf accuracy    <       0.00000052 Ry

     iteration # 11     ecut=    30.00 Ry     beta= 0.50
     Davidson diagonalization with overlap
     ethr =  2.71E-10,  avg # of iterations =  2.0

     negative rho (up, down):  5.530E-05 0.000E+00

     total cpu time spent up to now is       53.5 secs

     End of self-consistent calculation

          k = 0.0000 0.0000 0.0000 (  4701 PWs)   bands (ev):

   -77.3920 -77.3883 -77.3869 -77.3843 -42.4868 -42.4833 -42.4650 -42.4638
   -42.4259 -42.4085 -42.3887 -42.3749 -42.2547 -42.2477 -42.2133 -42.2108
   -34.6233 -34.6233 -34.6031 -34.6020 -13.6013 -13.3113 -13.2162 -13.0214
   -10.8868 -10.8616 -10.7440 -10.7265 -10.7154 -10.7002 -10.6731 -10.5402
   -10.5172 -10.4805 -10.3138 -10.2886  -0.7528  -0.3791  -0.1421  -0.1159
     0.5321   1.0224   1.0529   1.0959   1.5085   1.6515   2.1237   2.2362
     2.3705   2.4044   2.6604   2.6633   3.3575   3.9182   3.9275   4.0563
     4.0933   4.1498   4.2221   4.2785   4.4495   4.5400   4.7173   4.7447
     4.8893   4.8997   5.0846   5.1660   5.2019   5.3894   5.4136   5.5201
     5.5606   5.7188   5.8581   6.0376   6.0817   6.1302   6.1376   6.2129
     6.3871   6.4019   6.8544   7.1150   9.1907   9.2381   9.2608   9.3041
     9.3573   9.5194   9.5314   9.5467   9.5969   9.6032   9.7968   9.8008
    11.4616  11.4906  11.5287  11.8061  12.0989  12.1419  12.4151  12.4358
    13.0892  14.7512  15.3387  16.1873  16.1887  16.4320  16.4524  16.5473
    16.7248  16.7783  17.0319

     the Fermi energy is    11.1780 ev

!    total energy              =   -2098.95237184 Ry
     Harris-Foulkes estimate   =   -2098.95237187 Ry
     estimated scf accuracy    <       0.00000006 Ry

     The total energy is the sum of the following terms:

     one-electron contribution =    -848.94135556 Ry
     hartree contribution      =     531.42049114 Ry
     xc contribution           =    -293.89915638 Ry
     ewald contribution        =   -1031.01634974 Ry
     one-center paw contrib.   =    -456.51600129 Ry
     smearing contrib. (-TS)   =      -0.00000000 Ry

     convergence has been achieved in  11 iterations

     negative rho (up, down):  5.530E-05 0.000E+00

     Forces acting on atoms (cartesian axes, Ry/au):

     atom    1 type  4   force =     0.00000000   -0.00000000    0.00000000
     atom    2 type  4   force =     0.00000000    0.00000000    0.00000000
     atom    3 type  4   force =     0.00000000    0.00000000    0.00000000
     atom    4 type  4   force =     0.00000000   -0.00000000    0.00000000
     atom    5 type  2   force =    -0.04027353    0.00000000   -0.03288253
     atom    6 type  2   force =     0.04027353    0.00000000    0.03288253
     atom    7 type  2   force =     0.04027353   -0.00000000   -0.03288253
     atom    8 type  2   force =    -0.04027353   -0.00000000    0.03288253
     atom    9 type  1   force =    -0.00144189   -0.00000000   -0.00058344
     atom   10 type  1   force =     0.00144189   -0.00000000    0.00058344
     atom   11 type  1   force =     0.00144189    0.00000000   -0.00058344
     atom   12 type  1   force =    -0.00144189    0.00000000    0.00058344
     atom   13 type  3   force =    -0.00796843    0.00194869    0.00202539
     atom   14 type  3   force =     0.00796843   -0.00194869   -0.00202539
     atom   15 type  3   force =     0.00796843   -0.00194869    0.00202539
     atom   16 type  3   force =    -0.00796843    0.00194869   -0.00202539
     atom   17 type  3   force =    -0.00796843   -0.00194869   -0.00202539
     atom   18 type  3   force =     0.00796843    0.00194869    0.00202539
     atom   19 type  3   force =     0.00796843    0.00194869   -0.00202539
     atom   20 type  3   force =    -0.00796843   -0.00194869    0.00202539
     atom   21 type  3   force =    -0.00894855    0.00000000    0.01471039
     atom   22 type  3   force =     0.00894855    0.00000000   -0.01471039
     atom   23 type  3   force =     0.00894855   -0.00000000    0.01471039
     atom   24 type  3   force =    -0.00894855   -0.00000000   -0.01471039
     atom   25 type  3   force =    -0.01677653    0.00000000    0.00158374
     atom   26 type  3   force =     0.01677653   -0.00000000   -0.00158374
     atom   27 type  3   force =     0.01677653   -0.00000000    0.00158374
     atom   28 type  3   force =    -0.01677653    0.00000000   -0.00158374

     Total force =     0.117113     Total SCF correction =     0.000789


     Computing stress (Cartesian axis) and pressure


     negative rho (up, down):  5.530E-05 0.000E+00
          total   stress  (Ry/bohr**3)                   (kbar)     P= -293.79
  -0.00193053   0.00000000   0.00000000       -283.99      0.00      0.00
   0.00000000  -0.00211525   0.00000000          0.00   -311.16      0.00
   0.00000000   0.00000000  -0.00194576          0.00      0.00   -286.23


     Writing output data file VLAB.save/
 
     init_run     :      0.71s CPU      3.22s WALL (       2 calls)
     electrons    :     37.25s CPU     39.35s WALL (      19 calls)
     update_pot   :      2.49s CPU      2.55s WALL (      17 calls)
     forces       :      1.27s CPU      1.28s WALL (      19 calls)
     stress       :      2.79s CPU      2.79s WALL (      19 calls)

     Called by init_run:
     wfcinit      :      0.22s CPU      0.79s WALL (       2 calls)
     potinit      :      0.27s CPU      0.27s WALL (       2 calls)
     hinit0       :      0.20s CPU      1.86s WALL (       2 calls)

     Called by electrons:
     c_bands      :     21.70s CPU     23.17s WALL (     172 calls)
     sum_band     :      3.02s CPU      3.31s WALL (     172 calls)
     v_of_rho     :      0.38s CPU      0.40s WALL (     189 calls)
     newd         :      1.26s CPU      1.44s WALL (     189 calls)
     PAW_pot      :     13.15s CPU     13.47s WALL (     206 calls)
     mix_rho      :      0.12s CPU      0.13s WALL (     172 calls)

     Called by c_bands:
     init_us_2    :      0.10s CPU      0.10s WALL (     363 calls)
     cegterg      :     21.37s CPU     22.83s WALL (     172 calls)

     Called by sum_band:
     sum_band:bec :      0.04s CPU      0.04s WALL (     189 calls)
     addusdens    :      1.28s CPU      1.42s WALL (     172 calls)

     Called by *egterg:
     h_psi        :      7.18s CPU      7.65s WALL (     760 calls)
     s_psi        :      0.47s CPU      0.48s WALL (     760 calls)
     g_psi        :      0.01s CPU      0.01s WALL (     586 calls)
     cdiaghg      :     12.27s CPU     13.76s WALL (     739 calls)

     Called by h_psi:
     h_psi:pot    :      7.16s CPU      7.63s WALL (     760 calls)
     h_psi:calbec :      0.71s CPU      0.79s WALL (     760 calls)
     vloc_psi     :      5.86s CPU      6.24s WALL (     760 calls)
     add_vuspsi   :      0.58s CPU      0.60s WALL (     760 calls)

     General routines
     calbec       :      1.13s CPU      1.25s WALL (    1044 calls)
     fft          :      0.45s CPU      1.52s WALL (    2573 calls)
     ffts         :      0.03s CPU      0.03s WALL (     172 calls)
     fftw         :      6.52s CPU      6.96s WALL (  125288 calls)
     davcio       :      0.00s CPU      0.00s WALL (      18 calls)
 
     Parallel routines
     fft_scatt_xy :      0.51s CPU      0.55s WALL (  128033 calls)
     fft_scatt_yz :      4.69s CPU      5.02s WALL (  128033 calls)
 
     PWSCF        :     47.16s CPU     53.86s WALL

 
   This run was terminated on:   7:33:10  16Apr2020            

=------------------------------------------------------------------------------=
   JOB DONE.
=------------------------------------------------------------------------------=
