
     Program PWSCF v.6.4.1 starts on 16Apr2020 at  7:43: 1 

     This program is part of the open-source Quantum ESPRESSO suite
     for quantum simulation of materials; please cite
         "P. Giannozzi et al., J. Phys.:Condens. Matter 21 395502 (2009);
         "P. Giannozzi et al., J. Phys.:Condens. Matter 29 465901 (2017);
          URL http://www.quantum-espresso.org", 
     in publications or presentations arising from this work. More details at
     http://www.quantum-espresso.org/quote

     Parallel version (MPI), running on    48 processors

     MPI processes distributed on     1 nodes
     R & G space division:  proc/nbgrp/npool/nimage =      48
     Waiting for input...
     Reading input from standard input

     Current dimensions of program PWSCF are:
     Max number of different atomic species (ntypx) = 10
     Max number of k-points (npk) =  40000
     Max angular momentum in pseudopotentials (lmaxx) =  3
               file Fe.pbe-spn-kjpaw_psl.0.2.1.UPF: wavefunction(s)  3D renormalized
               file O.pbe-n-kjpaw_psl.0.1.UPF: wavefunction(s)  2P renormalized

     Subspace diagonalization in iterative solution of the eigenvalue problem:
     one sub-group per band group will be used
     scalapack distributed-memory algorithm (size of sub-group:  4*  4 procs)

     Message from routine setup:
     DEPRECATED: symmetry with ibrav=0, use correct ibrav instead
 
     Parallelization info
     --------------------
     sticks:   dense  smooth     PW     G-vecs:    dense   smooth      PW
     Min          67      45     13                 1731      943     147
     Max          68      46     14                 1736      945     150
     Sum        3245    2169    633                83227    45327    7089
 


     bravais-lattice index     =            0
     lattice parameter (alat)  =      19.7533  a.u.
     unit-cell volume          =    2040.8545 (a.u.)^3
     number of atoms/cell      =           28
     number of atomic types    =            4
     number of electrons       =       192.00
     number of Kohn-Sham states=          115
     kinetic-energy cutoff     =      30.0000  Ry
     charge density cutoff     =     180.0000  Ry
     convergence threshold     =      1.0E-06
     mixing beta               =       0.5000
     number of iterations used =            8  plain     mixing
     Exchange-correlation      =  SLA  PW   PBX  PBC ( 1  4  3  4 0 0)
     nstep                     =          200


     celldm(1)=  19.753284  celldm(2)=   0.000000  celldm(3)=   0.000000
     celldm(4)=   0.000000  celldm(5)=   0.000000  celldm(6)=   0.000000

     crystal axes: (cart. coord. in units of alat)
               a(1) = (   1.000000   0.000000   0.000000 )  
               a(2) = (   0.000000   0.582273   0.000000 )  
               a(3) = (   0.000000   0.000000   0.454744 )  

     reciprocal axes: (cart. coord. in units 2 pi/alat)
               b(1) = (  1.000000  0.000000  0.000000 )  
               b(2) = (  0.000000  1.717407  0.000000 )  
               b(3) = (  0.000000  0.000000  2.199038 )  


     PseudoPot. # 1 for P  read from file:
     ./P.pbe-n-rrkjus_psl.1.0.0.UPF
     MD5 check sum: 8b930f418f0a4573dca56cd030ffe088
     Pseudo is Ultrasoft + core correction, Zval =  5.0
     Generated using "atomic" code by A. Dal Corso v.5.1
     Using radial grid of 1147 points,  6 beta functions with: 
                l(1) =   0
                l(2) =   0
                l(3) =   1
                l(4) =   1
                l(5) =   2
                l(6) =   2
     Q(r) pseudized with 0 coefficients 


     PseudoPot. # 2 for Fe read from file:
     ./Fe.pbe-spn-kjpaw_psl.0.2.1.UPF
     MD5 check sum: e86618425769142926afa95317d90200
     Pseudo is Projector augmented-wave + core cor, Zval = 16.0
     Generated using "atomic" code by A. Dal Corso v.5.0.99 svn rev. 10869
     Shape of augmentation charge: PSQ
     Using radial grid of 1191 points,  6 beta functions with: 
                l(1) =   0
                l(2) =   0
                l(3) =   1
                l(4) =   1
                l(5) =   2
                l(6) =   2
     Q(r) pseudized with 0 coefficients 


     PseudoPot. # 3 for O  read from file:
     ./O.pbe-n-kjpaw_psl.0.1.UPF
     MD5 check sum: 0234752ac141de4415c5fc33072bef88
     Pseudo is Projector augmented-wave + core cor, Zval =  6.0
     Generated using "atomic" code by A. Dal Corso v.5.0.99 svn rev. 10869
     Shape of augmentation charge: BESSEL
     Using radial grid of 1095 points,  4 beta functions with: 
                l(1) =   0
                l(2) =   0
                l(3) =   1
                l(4) =   1
     Q(r) pseudized with 0 coefficients 


     PseudoPot. # 4 for Li read from file:
     ./li_pbe_v1.4.uspp.F.UPF
     MD5 check sum: e912e257baa3777c20ea3d68f190483c
     Pseudo is Ultrasoft, Zval =  3.0
     Generated by new atomic code, or converted to UPF format
     Using radial grid of  751 points,  5 beta functions with: 
                l(1) =   0
                l(2) =   0
                l(3) =   0
                l(4) =   1
                l(5) =   1
     Q(r) pseudized with 10 coefficients,  rinner =    1.150   1.150   1.150


     atomic species   valence    mass     pseudopotential
        P              5.00    30.97376     P ( 1.00)
        Fe            16.00    55.84500     Fe( 1.00)
        O              6.00    15.99940     O ( 1.00)
        Li             3.00     6.94100     Li( 1.00)

      8 Sym. Ops., with inversion, found ( 6 have fractional translation)


                                    s                        frac. trans.

      isym =  1     identity                                     

 cryst.   s( 1) = (     1          0          0      )
                  (     0          1          0      )
                  (     0          0          1      )

 cart.    s( 1) = (  1.0000000  0.0000000  0.0000000 )
                  (  0.0000000  1.0000000  0.0000000 )
                  (  0.0000000  0.0000000  1.0000000 )


      isym =  2     180 deg rotation - cart. axis [0,0,1]        

 cryst.   s( 2) = (    -1          0          0      )    f =(  0.5000000 )
                  (     0         -1          0      )       (  0.0000000 )
                  (     0          0          1      )       ( -0.5000000 )

 cart.    s( 2) = ( -1.0000000  0.0000000  0.0000000 )    f =(  0.5000000 )
                  (  0.0000000 -1.0000000  0.0000000 )       (  0.0000000 )
                  (  0.0000000  0.0000000  1.0000000 )       ( -0.2273722 )


      isym =  3     180 deg rotation - cart. axis [0,1,0]        

 cryst.   s( 3) = (    -1          0          0      )    f =(  0.0000000 )
                  (     0          1          0      )       ( -0.5000000 )
                  (     0          0         -1      )       (  0.0000000 )

 cart.    s( 3) = ( -1.0000000  0.0000000  0.0000000 )    f =(  0.0000000 )
                  (  0.0000000  1.0000000  0.0000000 )       ( -0.2911366 )
                  (  0.0000000  0.0000000 -1.0000000 )       (  0.0000000 )


      isym =  4     180 deg rotation - cart. axis [1,0,0]        

 cryst.   s( 4) = (     1          0          0      )    f =( -0.5000000 )
                  (     0         -1          0      )       (  0.5000000 )
                  (     0          0         -1      )       (  0.5000000 )

 cart.    s( 4) = (  1.0000000  0.0000000  0.0000000 )    f =( -0.5000000 )
                  (  0.0000000 -1.0000000  0.0000000 )       (  0.2911366 )
                  (  0.0000000  0.0000000 -1.0000000 )       (  0.2273722 )


      isym =  5     inversion                                    

 cryst.   s( 5) = (    -1          0          0      )
                  (     0         -1          0      )
                  (     0          0         -1      )

 cart.    s( 5) = ( -1.0000000  0.0000000  0.0000000 )
                  (  0.0000000 -1.0000000  0.0000000 )
                  (  0.0000000  0.0000000 -1.0000000 )


      isym =  6     inv. 180 deg rotation - cart. axis [0,0,1]   

 cryst.   s( 6) = (     1          0          0      )    f =( -0.5000000 )
                  (     0          1          0      )       (  0.0000000 )
                  (     0          0         -1      )       (  0.5000000 )

 cart.    s( 6) = (  1.0000000  0.0000000  0.0000000 )    f =( -0.5000000 )
                  (  0.0000000  1.0000000  0.0000000 )       (  0.0000000 )
                  (  0.0000000  0.0000000 -1.0000000 )       (  0.2273722 )


      isym =  7     inv. 180 deg rotation - cart. axis [0,1,0]   

 cryst.   s( 7) = (     1          0          0      )    f =(  0.0000000 )
                  (     0         -1          0      )       (  0.5000000 )
                  (     0          0          1      )       (  0.0000000 )

 cart.    s( 7) = (  1.0000000  0.0000000  0.0000000 )    f =(  0.0000000 )
                  (  0.0000000 -1.0000000  0.0000000 )       (  0.2911366 )
                  (  0.0000000  0.0000000  1.0000000 )       (  0.0000000 )


      isym =  8     inv. 180 deg rotation - cart. axis [1,0,0]   

 cryst.   s( 8) = (    -1          0          0      )    f =(  0.5000000 )
                  (     0          1          0      )       ( -0.5000000 )
                  (     0          0          1      )       ( -0.5000000 )

 cart.    s( 8) = ( -1.0000000  0.0000000  0.0000000 )    f =(  0.5000000 )
                  (  0.0000000  1.0000000  0.0000000 )       ( -0.2911366 )
                  (  0.0000000  0.0000000  1.0000000 )       ( -0.2273722 )


   Cartesian axes

     site n.     atom                  positions (alat units)
         1           Li  tau(   1) = (   0.0000000   0.0000000   0.0000000  )
         2           Li  tau(   2) = (   0.5000000   0.0000000   0.2273722  )
         3           Li  tau(   3) = (   0.5000000   0.2911366   0.2273722  )
         4           Li  tau(   4) = (   0.0000000   0.2911366   0.0000000  )
         5           Fe  tau(   5) = (   0.2185060   0.4367049   0.2164738  )
         6           Fe  tau(   6) = (   0.7814940   0.1455683   0.2382706  )
         7           Fe  tau(   7) = (   0.2814940   0.1455683   0.4438459  )
         8           Fe  tau(   8) = (   0.7185060   0.4367049   0.0108984  )
         9           P   tau(   9) = (   0.0946680   0.1455683   0.1904669  )
        10           P   tau(  10) = (   0.9053320   0.4367049   0.2642774  )
        11           P   tau(  11) = (   0.4053320   0.4367049   0.4178391  )
        12           P   tau(  12) = (   0.5946680   0.1455683   0.0369052  )
        13           O   tau(  13) = (   0.1656890   0.0274210   0.1301224  )
        14           O   tau(  14) = (   0.8343110   0.5548522   0.3246220  )
        15           O   tau(  15) = (   0.3343110   0.5548522   0.3574945  )
        16           O   tau(  16) = (   0.6656890   0.0274210   0.0972498  )
        17           O   tau(  17) = (   0.6656890   0.2637156   0.0972498  )
        18           O   tau(  18) = (   0.3343110   0.3185576   0.3574945  )
        19           O   tau(  19) = (   0.8343110   0.3185576   0.3246220  )
        20           O   tau(  20) = (   0.1656890   0.2637156   0.1301224  )
        21           O   tau(  21) = (   0.0427110   0.4367049   0.3213164  )
        22           O   tau(  22) = (   0.9572890   0.1455683   0.1334279  )
        23           O   tau(  23) = (   0.4572890   0.1455683   0.0939443  )
        24           O   tau(  24) = (   0.5427110   0.4367049   0.3608001  )
        25           O   tau(  25) = (   0.0965200   0.1455683   0.3375663  )
        26           O   tau(  26) = (   0.9034800   0.4367049   0.1171781  )
        27           O   tau(  27) = (   0.4034800   0.4367049   0.1101941  )
        28           O   tau(  28) = (   0.5965200   0.1455683   0.3445502  )

   Crystallographic axes

     site n.     atom                  positions (cryst. coord.)
         1           Li  tau(   1) = (  0.0000000  0.0000000  0.0000000  )
         2           Li  tau(   2) = (  0.5000000  0.0000000  0.5000000  )
         3           Li  tau(   3) = (  0.5000000  0.5000000  0.5000000  )
         4           Li  tau(   4) = (  0.0000000  0.5000000  0.0000000  )
         5           Fe  tau(   5) = (  0.2185060  0.7500000  0.4760340  )
         6           Fe  tau(   6) = (  0.7814940  0.2500000  0.5239660  )
         7           Fe  tau(   7) = (  0.2814940  0.2500000  0.9760340  )
         8           Fe  tau(   8) = (  0.7185060  0.7500000  0.0239660  )
         9           P   tau(   9) = (  0.0946680  0.2500000  0.4188440  )
        10           P   tau(  10) = (  0.9053320  0.7500000  0.5811560  )
        11           P   tau(  11) = (  0.4053320  0.7500000  0.9188440  )
        12           P   tau(  12) = (  0.5946680  0.2500000  0.0811560  )
        13           O   tau(  13) = (  0.1656890  0.0470930  0.2861440  )
        14           O   tau(  14) = (  0.8343110  0.9529070  0.7138560  )
        15           O   tau(  15) = (  0.3343110  0.9529070  0.7861440  )
        16           O   tau(  16) = (  0.6656890  0.0470930  0.2138560  )
        17           O   tau(  17) = (  0.6656890  0.4529070  0.2138560  )
        18           O   tau(  18) = (  0.3343110  0.5470930  0.7861440  )
        19           O   tau(  19) = (  0.8343110  0.5470930  0.7138560  )
        20           O   tau(  20) = (  0.1656890  0.4529070  0.2861440  )
        21           O   tau(  21) = (  0.0427110  0.7500000  0.7065870  )
        22           O   tau(  22) = (  0.9572890  0.2500000  0.2934130  )
        23           O   tau(  23) = (  0.4572890  0.2500000  0.2065870  )
        24           O   tau(  24) = (  0.5427110  0.7500000  0.7934130  )
        25           O   tau(  25) = (  0.0965200  0.2500000  0.7423210  )
        26           O   tau(  26) = (  0.9034800  0.7500000  0.2576790  )
        27           O   tau(  27) = (  0.4034800  0.7500000  0.2423210  )
        28           O   tau(  28) = (  0.5965200  0.2500000  0.7576790  )

     number of k points=    24  gaussian smearing, width (Ry)=  0.0020
                       cart. coord. in units 2pi/alat
        k(    1) = (   0.0000000   0.0000000   0.0000000), wk =   0.0222222
        k(    2) = (   0.0000000   0.0000000   0.3665063), wk =   0.0444444
        k(    3) = (   0.0000000   0.0000000   0.7330126), wk =   0.0444444
        k(    4) = (   0.0000000   0.0000000  -1.0995189), wk =   0.0222222
        k(    5) = (   0.0000000   0.3434814   0.0000000), wk =   0.0444444
        k(    6) = (   0.0000000   0.3434814   0.3665063), wk =   0.0888889
        k(    7) = (   0.0000000   0.3434814   0.7330126), wk =   0.0888889
        k(    8) = (   0.0000000   0.3434814  -1.0995189), wk =   0.0444444
        k(    9) = (   0.0000000   0.6869627   0.0000000), wk =   0.0444444
        k(   10) = (   0.0000000   0.6869627   0.3665063), wk =   0.0888889
        k(   11) = (   0.0000000   0.6869627   0.7330126), wk =   0.0888889
        k(   12) = (   0.0000000   0.6869627  -1.0995189), wk =   0.0444444
        k(   13) = (   0.3333333   0.0000000   0.0000000), wk =   0.0444444
        k(   14) = (   0.3333333   0.0000000   0.3665063), wk =   0.0888889
        k(   15) = (   0.3333333   0.0000000   0.7330126), wk =   0.0888889
        k(   16) = (   0.3333333   0.0000000  -1.0995189), wk =   0.0444444
        k(   17) = (   0.3333333   0.3434814   0.0000000), wk =   0.0888889
        k(   18) = (   0.3333333   0.3434814   0.3665063), wk =   0.1777778
        k(   19) = (   0.3333333   0.3434814   0.7330126), wk =   0.1777778
        k(   20) = (   0.3333333   0.3434814  -1.0995189), wk =   0.0888889
        k(   21) = (   0.3333333   0.6869627   0.0000000), wk =   0.0888889
        k(   22) = (   0.3333333   0.6869627   0.3665063), wk =   0.1777778
        k(   23) = (   0.3333333   0.6869627   0.7330126), wk =   0.1777778
        k(   24) = (   0.3333333   0.6869627  -1.0995189), wk =   0.0888889

                       cryst. coord.
        k(    1) = (   0.0000000   0.0000000   0.0000000), wk =   0.0222222
        k(    2) = (   0.0000000   0.0000000   0.1666667), wk =   0.0444444
        k(    3) = (   0.0000000   0.0000000   0.3333333), wk =   0.0444444
        k(    4) = (   0.0000000   0.0000000  -0.5000000), wk =   0.0222222
        k(    5) = (   0.0000000   0.2000000   0.0000000), wk =   0.0444444
        k(    6) = (   0.0000000   0.2000000   0.1666667), wk =   0.0888889
        k(    7) = (   0.0000000   0.2000000   0.3333333), wk =   0.0888889
        k(    8) = (   0.0000000   0.2000000  -0.5000000), wk =   0.0444444
        k(    9) = (   0.0000000   0.4000000   0.0000000), wk =   0.0444444
        k(   10) = (   0.0000000   0.4000000   0.1666667), wk =   0.0888889
        k(   11) = (   0.0000000   0.4000000   0.3333333), wk =   0.0888889
        k(   12) = (   0.0000000   0.4000000  -0.5000000), wk =   0.0444444
        k(   13) = (   0.3333333   0.0000000   0.0000000), wk =   0.0444444
        k(   14) = (   0.3333333   0.0000000   0.1666667), wk =   0.0888889
        k(   15) = (   0.3333333   0.0000000   0.3333333), wk =   0.0888889
        k(   16) = (   0.3333333   0.0000000  -0.5000000), wk =   0.0444444
        k(   17) = (   0.3333333   0.2000000   0.0000000), wk =   0.0888889
        k(   18) = (   0.3333333   0.2000000   0.1666667), wk =   0.1777778
        k(   19) = (   0.3333333   0.2000000   0.3333333), wk =   0.1777778
        k(   20) = (   0.3333333   0.2000000  -0.5000000), wk =   0.0888889
        k(   21) = (   0.3333333   0.4000000   0.0000000), wk =   0.0888889
        k(   22) = (   0.3333333   0.4000000   0.1666667), wk =   0.1777778
        k(   23) = (   0.3333333   0.4000000   0.3333333), wk =   0.1777778
        k(   24) = (   0.3333333   0.4000000  -0.5000000), wk =   0.0888889

     Dense  grid:    83227 G-vectors     FFT dimensions: (  90,  50,  40)

     Smooth grid:    45327 G-vectors     FFT dimensions: (  72,  48,  32)

     Dynamical RAM for                 wfc:       0.21 MB

     Dynamical RAM for     wfc (w. buffer):       5.13 MB

     Dynamical RAM for           str. fact:       0.11 MB

     Dynamical RAM for           local pot:       0.00 MB

     Dynamical RAM for          nlocal pot:       0.55 MB

     Dynamical RAM for                qrad:      27.05 MB

     Dynamical RAM for          rho,v,vnew:       0.18 MB

     Dynamical RAM for               rhoin:       0.06 MB

     Dynamical RAM for            rho*nmix:       0.42 MB

     Dynamical RAM for           G-vectors:       0.11 MB

     Dynamical RAM for          h,s,v(r/c):       0.61 MB

     Dynamical RAM for          <psi|beta>:       0.54 MB

     Dynamical RAM for                 psi:       0.82 MB

     Dynamical RAM for                hpsi:       0.82 MB

     Dynamical RAM for                spsi:       0.82 MB

     Dynamical RAM for      wfcinit/wfcrot:       0.71 MB

     Dynamical RAM for           addusdens:       5.35 MB

     Dynamical RAM for          addusforce:       7.22 MB

     Dynamical RAM for         addusstress:       5.32 MB

     Estimated static dynamical RAM per process >      33.92 MB

     Estimated max dynamical RAM per process >      41.14 MB

     Estimated total dynamical RAM >       1.93 GB

     Check: negative core charge=   -0.000651

     Initial potential from superposition of free atoms

     starting charge  190.19461, renormalised to  192.00000
     Starting wfcs are random
     Checking if some PAW data can be deallocated... 
       PAW data deallocated on   40 nodes for type:  2
       PAW data deallocated on   24 nodes for type:  3

     total cpu time spent up to now is        6.0 secs

     Self-consistent Calculation

     iteration #  1     ecut=    30.00 Ry     beta= 0.50
     Davidson diagonalization with overlap
     ethr =  1.00E-02,  avg # of iterations =  7.9

     total cpu time spent up to now is       16.1 secs

     total energy              =   -2095.74672461 Ry
     Harris-Foulkes estimate   =   -2098.61421490 Ry
     estimated scf accuracy    <       5.30088877 Ry

     iteration #  2     ecut=    30.00 Ry     beta= 0.50
     Davidson diagonalization with overlap
     ethr =  2.76E-03,  avg # of iterations =  2.3

     total cpu time spent up to now is       19.1 secs

     total energy              =   -2092.68639991 Ry
     Harris-Foulkes estimate   =   -2099.22764425 Ry
     estimated scf accuracy    <      25.73627975 Ry

     iteration #  3     ecut=    30.00 Ry     beta= 0.50
     Davidson diagonalization with overlap
     ethr =  2.76E-03,  avg # of iterations =  2.0

     total cpu time spent up to now is       21.5 secs

     total energy              =   -2097.59763268 Ry
     Harris-Foulkes estimate   =   -2097.93494898 Ry
     estimated scf accuracy    <       2.01057971 Ry

     iteration #  4     ecut=    30.00 Ry     beta= 0.50
     Davidson diagonalization with overlap
     ethr =  1.05E-03,  avg # of iterations =  2.0

     negative rho (up, down):  1.583E-04 0.000E+00

     total cpu time spent up to now is       23.8 secs

     total energy              =   -2097.55715434 Ry
     Harris-Foulkes estimate   =   -2097.71321043 Ry
     estimated scf accuracy    <       0.63135004 Ry

     iteration #  5     ecut=    30.00 Ry     beta= 0.50
     Davidson diagonalization with overlap
     ethr =  3.29E-04,  avg # of iterations =  2.0

     negative rho (up, down):  3.259E-04 0.000E+00

     total cpu time spent up to now is       26.2 secs

     total energy              =   -2097.61056666 Ry
     Harris-Foulkes estimate   =   -2097.61443084 Ry
     estimated scf accuracy    <       0.03949893 Ry

     iteration #  6     ecut=    30.00 Ry     beta= 0.50
     Davidson diagonalization with overlap
     ethr =  2.06E-05,  avg # of iterations =  5.6

     negative rho (up, down):  4.082E-04 0.000E+00

     total cpu time spent up to now is       30.5 secs

     total energy              =   -2097.61600565 Ry
     Harris-Foulkes estimate   =   -2097.61519236 Ry
     estimated scf accuracy    <       0.00421130 Ry

     iteration #  7     ecut=    30.00 Ry     beta= 0.50
     Davidson diagonalization with overlap
     ethr =  2.19E-06,  avg # of iterations =  4.6

     negative rho (up, down):  4.628E-04 0.000E+00

     total cpu time spent up to now is       34.9 secs

     total energy              =   -2097.61716926 Ry
     Harris-Foulkes estimate   =   -2097.61670361 Ry
     estimated scf accuracy    <       0.00075915 Ry

     iteration #  8     ecut=    30.00 Ry     beta= 0.50
     Davidson diagonalization with overlap
     ethr =  3.95E-07,  avg # of iterations =  2.0

     negative rho (up, down):  4.876E-04 0.000E+00

     total cpu time spent up to now is       37.2 secs

     total energy              =   -2097.61739434 Ry
     Harris-Foulkes estimate   =   -2097.61725276 Ry
     estimated scf accuracy    <       0.00010045 Ry

     iteration #  9     ecut=    30.00 Ry     beta= 0.50
     Davidson diagonalization with overlap
     ethr =  5.23E-08,  avg # of iterations =  3.0

     negative rho (up, down):  4.965E-04 0.000E+00

     total cpu time spent up to now is       40.7 secs

     total energy              =   -2097.61750192 Ry
     Harris-Foulkes estimate   =   -2097.61743080 Ry
     estimated scf accuracy    <       0.00001758 Ry

     iteration # 10     ecut=    30.00 Ry     beta= 0.50
     Davidson diagonalization with overlap
     ethr =  9.16E-09,  avg # of iterations =  2.0

     negative rho (up, down):  5.008E-04 0.000E+00

     total cpu time spent up to now is       43.3 secs

     total energy              =   -2097.61752668 Ry
     Harris-Foulkes estimate   =   -2097.61750515 Ry
     estimated scf accuracy    <       0.00000184 Ry

     iteration # 11     ecut=    30.00 Ry     beta= 0.50
     Davidson diagonalization with overlap
     ethr =  9.59E-10,  avg # of iterations =  2.4

     negative rho (up, down):  5.057E-04 0.000E+00

     total cpu time spent up to now is       46.3 secs

     End of self-consistent calculation

          k = 0.0000 0.0000 0.0000 (  5669 PWs)   bands (ev):

   -79.8603 -79.8573 -79.8552 -79.8551 -45.3219 -45.3049 -45.2823 -45.2787
   -45.2331 -45.2237 -45.2133 -45.2122 -45.0291 -45.0268 -45.0265 -45.0167
   -37.5886 -37.5884 -37.5808 -37.5800 -15.2747 -15.1220 -15.0411 -14.9454
   -12.6812 -12.6415 -12.6050 -12.5766 -12.5632 -12.5576 -12.5539 -12.5275
   -12.4520 -12.4308 -12.4136 -12.4119  -2.5535  -2.1418  -2.1256  -1.9824
    -0.8533  -0.4874  -0.4564  -0.3895  -0.1177  -0.0466   0.2435   0.3546
     0.4021   0.4676   0.5316   0.6246   1.6978   2.0791   2.2182   2.2366
     2.3455   2.3662   2.3779   2.3962   2.5485   2.6992   2.9432   3.1354
     3.1395   3.1775   3.1923   3.2218   3.2840   3.3114   3.4513   3.5095
     3.5294   3.7085   3.7433   3.7971   3.9445   4.0367   4.1348   4.2075
     4.3009   4.4604   4.8306   4.9823   6.3989   6.4149   6.4915   6.5272
     6.5487   6.6178   6.6577   6.6643   6.7188   6.7280   6.7545   6.7755
     8.2662   8.2922   8.2961   8.5794   8.7533   8.7589   8.8642   8.8838
    10.0732  11.9042  12.4266  12.9531  13.5776  13.8586  13.9826  13.9995
    14.2666  14.3696  14.6397

     occupation numbers 
     1.0000   1.0000   1.0000   1.0000   1.0000   1.0000   1.0000   1.0000
     1.0000   1.0000   1.0000   1.0000   1.0000   1.0000   1.0000   1.0000
     1.0000   1.0000   1.0000   1.0000   1.0000   1.0000   1.0000   1.0000
     1.0000   1.0000   1.0000   1.0000   1.0000   1.0000   1.0000   1.0000
     1.0000   1.0000   1.0000   1.0000   1.0000   1.0000   1.0000   1.0000
     1.0000   1.0000   1.0000   1.0000   1.0000   1.0000   1.0000   1.0000
     1.0000   1.0000   1.0000   1.0000   1.0000   1.0000   1.0000   1.0000
     1.0000   1.0000   1.0000   1.0000   1.0000   1.0000   1.0000   1.0000
     1.0000   1.0000   1.0000   1.0000   1.0000   1.0000   1.0000   1.0000
     1.0000   1.0000   1.0000   1.0000   1.0000   1.0000   1.0000   1.0000
     1.0000   1.0000   1.0000   1.0000   1.0000   1.0000   1.0000   1.0000
     1.0000   1.0000   1.0000   1.0000   1.0000   1.0000   1.0000   1.0000
     0.0000   0.0000   0.0000   0.0000   0.0000   0.0000   0.0000   0.0000
     0.0000   0.0000   0.0000   0.0000   0.0000   0.0000   0.0000   0.0000
     0.0000   0.0000   0.0000

          k = 0.0000 0.0000 0.3665 (  5645 PWs)   bands (ev):

   -79.8576 -79.8558 -79.8555 -79.8521 -45.3116 -45.2911 -45.2827 -45.2724
   -45.2281 -45.2236 -45.2121 -45.2089 -45.0258 -45.0181 -45.0176 -45.0075
   -37.5882 -37.5878 -37.5805 -37.5801 -15.2444 -15.1100 -15.0113 -14.9267
   -12.6820 -12.6776 -12.6508 -12.6107 -12.5717 -12.5687 -12.5426 -12.5244
   -12.4616 -12.4356 -12.4282 -12.4232  -2.5278  -2.1450  -2.1306  -1.9669
    -0.6970  -0.3216  -0.2918  -0.1946  -0.1455   0.0012   0.1621   0.2944
     0.3962   0.4577   0.5691   0.6285   1.6707   1.9667   2.1004   2.1519
     2.2496   2.2555   2.3466   2.4779   2.5337   2.5381   2.9491   2.9685
     2.9751   3.0926   3.1138   3.1431   3.2661   3.2993   3.5268   3.6793
     3.6842   3.7265   3.8016   3.9255   4.0229   4.1458   4.1865   4.2259
     4.3707   4.5362   4.8436   4.9531   6.3932   6.4045   6.4649   6.4752
     6.5230   6.5936   6.6589   6.6707   6.7462   6.7557   6.7779   6.8186
     8.3024   8.3106   8.3275   8.5275   8.7397   8.7638   8.8247   8.8452
    10.4170  11.9861  12.6195  12.8239  13.4640  13.6096  13.9341  13.9524
    14.1027  14.3036  14.4019

     occupation numbers 
     1.0000   1.0000   1.0000   1.0000   1.0000   1.0000   1.0000   1.0000
     1.0000   1.0000   1.0000   1.0000   1.0000   1.0000   1.0000   1.0000
     1.0000   1.0000   1.0000   1.0000   1.0000   1.0000   1.0000   1.0000
     1.0000   1.0000   1.0000   1.0000   1.0000   1.0000   1.0000   1.0000
     1.0000   1.0000   1.0000   1.0000   1.0000   1.0000   1.0000   1.0000
     1.0000   1.0000   1.0000   1.0000   1.0000   1.0000   1.0000   1.0000
     1.0000   1.0000   1.0000   1.0000   1.0000   1.0000   1.0000   1.0000
     1.0000   1.0000   1.0000   1.0000   1.0000   1.0000   1.0000   1.0000
     1.0000   1.0000   1.0000   1.0000   1.0000   1.0000   1.0000   1.0000
     1.0000   1.0000   1.0000   1.0000   1.0000   1.0000   1.0000   1.0000
     1.0000   1.0000   1.0000   1.0000   1.0000   1.0000   1.0000   1.0000
     1.0000   1.0000   1.0000   1.0000   1.0000   1.0000   1.0000   1.0000
     0.0000   0.0000   0.0000   0.0000   0.0000   0.0000   0.0000   0.0000
     0.0000   0.0000   0.0000   0.0000   0.0000   0.0000   0.0000   0.0000
     0.0000   0.0000   0.0000

          k = 0.0000 0.0000 0.7330 (  5640 PWs)   bands (ev):

   -79.8563 -79.8556 -79.8547 -79.8514 -45.2989 -45.2826 -45.2792 -45.2645
   -45.2294 -45.2183 -45.2112 -45.2051 -45.0251 -45.0227 -45.0221 -45.0110
   -37.5878 -37.5878 -37.5803 -37.5801 -15.1738 -15.0924 -14.9442 -14.8924
   -12.7603 -12.7429 -12.7050 -12.7028 -12.5821 -12.5474 -12.5272 -12.5145
   -12.4856 -12.4528 -12.4487 -12.4437  -2.4296  -2.1567  -2.1468  -2.0206
    -0.2824  -0.1827  -0.0685  -0.0187  -0.0067   0.1358   0.2387   0.4511
     0.4658   0.5359   0.5428   0.5844   1.6010   1.7283   1.9636   1.9664
     2.0303   2.1046   2.2014   2.3592   2.3954   2.4251   2.4926   2.6156
     2.8582   2.9521   2.9522   3.0068   3.1393   3.3808   3.4912   3.6334
     3.9919   4.0084   4.0743   4.1581   4.1784   4.2575   4.2927   4.3972
     4.4654   4.6616   4.8822   4.8962   6.3592   6.4085   6.4276   6.4439
     6.4736   6.5389   6.6554   6.6698   6.7932   6.8109   6.8190   6.8544
     8.3370   8.4049   8.4273   8.4395   8.7101   8.7184   8.7371   8.7532
    11.1932  12.2099  12.5259  12.9434  13.3134  13.3176  13.6635  13.8035
    13.8120  14.1038  14.4071

     occupation numbers 
     1.0000   1.0000   1.0000   1.0000   1.0000   1.0000   1.0000   1.0000
     1.0000   1.0000   1.0000   1.0000   1.0000   1.0000   1.0000   1.0000
     1.0000   1.0000   1.0000   1.0000   1.0000   1.0000   1.0000   1.0000
     1.0000   1.0000   1.0000   1.0000   1.0000   1.0000   1.0000   1.0000
     1.0000   1.0000   1.0000   1.0000   1.0000   1.0000   1.0000   1.0000
     1.0000   1.0000   1.0000   1.0000   1.0000   1.0000   1.0000   1.0000
     1.0000   1.0000   1.0000   1.0000   1.0000   1.0000   1.0000   1.0000
     1.0000   1.0000   1.0000   1.0000   1.0000   1.0000   1.0000   1.0000
     1.0000   1.0000   1.0000   1.0000   1.0000   1.0000   1.0000   1.0000
     1.0000   1.0000   1.0000   1.0000   1.0000   1.0000   1.0000   1.0000
     1.0000   1.0000   1.0000   1.0000   1.0000   1.0000   1.0000   1.0000
     1.0000   1.0000   1.0000   1.0000   1.0000   1.0000   1.0000   1.0000
     0.0000   0.0000   0.0000   0.0000   0.0000   0.0000   0.0000   0.0000
     0.0000   0.0000   0.0000   0.0000   0.0000   0.0000   0.0000   0.0000
     0.0000   0.0000   0.0000

          k = 0.0000 0.0000-1.0995 (  5644 PWs)   bands (ev):

   -79.8562 -79.8562 -79.8528 -79.8528 -45.2846 -45.2846 -45.2734 -45.2734
   -45.2264 -45.2264 -45.2043 -45.2043 -45.0281 -45.0281 -45.0195 -45.0195
   -37.5878 -37.5878 -37.5802 -37.5802 -15.1101 -15.1101 -14.8912 -14.8912
   -12.7934 -12.7934 -12.7460 -12.7460 -12.5504 -12.5504 -12.5171 -12.5171
   -12.4814 -12.4814 -12.4548 -12.4548  -2.2638  -2.2638  -2.1180  -2.1180
    -0.1425  -0.1425  -0.1010  -0.1010   0.3274   0.3274   0.4359   0.4359
     0.4980   0.4980   0.8245   0.8245   1.5241   1.5241   1.7969   1.7969
     1.9671   1.9671   1.9779   1.9779   2.3896   2.3896   2.4198   2.4198
     2.8722   2.8722   2.8938   2.8938   3.3114   3.3114   3.4993   3.4993
     4.1630   4.1630   4.1662   4.1662   4.3357   4.3357   4.3852   4.3852
     4.6278   4.6278   4.8998   4.8998   6.3653   6.3653   6.4478   6.4478
     6.4747   6.4747   6.6602   6.6602   6.8257   6.8257   6.8512   6.8512
     8.3741   8.3741   8.5542   8.5542   8.5762   8.5762   8.7258   8.7258
    11.9943  11.9943  12.5726  12.5726  13.3744  13.3744  13.6598  13.6598
    13.7900  13.7900  14.5746

     occupation numbers 
     1.0000   1.0000   1.0000   1.0000   1.0000   1.0000   1.0000   1.0000
     1.0000   1.0000   1.0000   1.0000   1.0000   1.0000   1.0000   1.0000
     1.0000   1.0000   1.0000   1.0000   1.0000   1.0000   1.0000   1.0000
     1.0000   1.0000   1.0000   1.0000   1.0000   1.0000   1.0000   1.0000
     1.0000   1.0000   1.0000   1.0000   1.0000   1.0000   1.0000   1.0000
     1.0000   1.0000   1.0000   1.0000   1.0000   1.0000   1.0000   1.0000
     1.0000   1.0000   1.0000   1.0000   1.0000   1.0000   1.0000   1.0000
     1.0000   1.0000   1.0000   1.0000   1.0000   1.0000   1.0000   1.0000
     1.0000   1.0000   1.0000   1.0000   1.0000   1.0000   1.0000   1.0000
     1.0000   1.0000   1.0000   1.0000   1.0000   1.0000   1.0000   1.0000
     1.0000   1.0000   1.0000   1.0000   1.0000   1.0000   1.0000   1.0000
     1.0000   1.0000   1.0000   1.0000   1.0000   1.0000   1.0000   1.0000
     0.0000   0.0000   0.0000   0.0000   0.0000   0.0000   0.0000   0.0000
     0.0000   0.0000   0.0000   0.0000   0.0000   0.0000   0.0000   0.0000
     0.0000   0.0000   0.0000

          k = 0.0000 0.3435 0.0000 (  5644 PWs)   bands (ev):

   -79.8566 -79.8565 -79.8545 -79.8537 -45.2952 -45.2951 -45.2781 -45.2772
   -45.2205 -45.2188 -45.2143 -45.2061 -45.0288 -45.0258 -45.0227 -45.0200
   -37.5878 -37.5868 -37.5810 -37.5810 -15.2429 -15.1096 -15.0437 -14.9761
   -12.6983 -12.6373 -12.6055 -12.5973 -12.5717 -12.5597 -12.5531 -12.5079
   -12.4525 -12.4319 -12.4245 -12.4002  -2.4828  -2.1050  -2.0891  -2.0139
    -0.7754  -0.4575  -0.4364  -0.4102  -0.0797  -0.0162   0.2140   0.3823
     0.3963   0.5489   0.5507   0.5599   1.7528   1.9660   2.1070   2.1381
     2.2876   2.3044   2.4624   2.5512   2.7108   2.7399   2.8178   2.9067
     2.9550   3.0773   3.1697   3.2350   3.4560   3.4760   3.4846   3.5182
     3.5803   3.6756   3.7687   3.7862   4.0013   4.0520   4.1233   4.1625
     4.2563   4.4511   4.6747   4.8901   6.3683   6.4645   6.4841   6.4968
     6.5683   6.5880   6.5932   6.6004   6.7594   6.8071   6.8123   6.8916
     8.1930   8.2547   8.4327   8.5454   8.6416   8.7742   8.8118   8.8254
    10.4038  12.0866  12.5853  12.8236  13.6427  13.7484  14.1169  14.1337
    14.3530  14.4618  14.4642

     occupation numbers 
     1.0000   1.0000   1.0000   1.0000   1.0000   1.0000   1.0000   1.0000
     1.0000   1.0000   1.0000   1.0000   1.0000   1.0000   1.0000   1.0000
     1.0000   1.0000   1.0000   1.0000   1.0000   1.0000   1.0000   1.0000
     1.0000   1.0000   1.0000   1.0000   1.0000   1.0000   1.0000   1.0000
     1.0000   1.0000   1.0000   1.0000   1.0000   1.0000   1.0000   1.0000
     1.0000   1.0000   1.0000   1.0000   1.0000   1.0000   1.0000   1.0000
     1.0000   1.0000   1.0000   1.0000   1.0000   1.0000   1.0000   1.0000
     1.0000   1.0000   1.0000   1.0000   1.0000   1.0000   1.0000   1.0000
     1.0000   1.0000   1.0000   1.0000   1.0000   1.0000   1.0000   1.0000
     1.0000   1.0000   1.0000   1.0000   1.0000   1.0000   1.0000   1.0000
     1.0000   1.0000   1.0000   1.0000   1.0000   1.0000   1.0000   1.0000
     1.0000   1.0000   1.0000   1.0000   1.0000   1.0000   1.0000   1.0000
     0.0000   0.0000   0.0000   0.0000   0.0000   0.0000   0.0000   0.0000
     0.0000   0.0000   0.0000   0.0000   0.0000   0.0000   0.0000   0.0000
     0.0000   0.0000   0.0000

          k = 0.0000 0.3435 0.3665 (  5645 PWs)   bands (ev):

   -79.8571 -79.8553 -79.8552 -79.8531 -45.2951 -45.2925 -45.2842 -45.2831
   -45.2239 -45.2225 -45.2113 -45.2069 -45.0297 -45.0199 -45.0176 -45.0101
   -37.5876 -37.5872 -37.5810 -37.5808 -15.2140 -15.0960 -15.0153 -14.9560
   -12.6955 -12.6796 -12.6446 -12.6216 -12.5831 -12.5773 -12.5549 -12.5054
   -12.4569 -12.4455 -12.4322 -12.4093  -2.4592  -2.1082  -2.0969  -1.9938
    -0.6139  -0.3223  -0.2701  -0.2448  -0.0321  -0.0317   0.2370   0.2615
     0.4241   0.4716   0.5591   0.5672   1.7091   1.9230   1.9924   2.0243
     2.1910   2.2192   2.4074   2.4539   2.6326   2.6600   2.7603   2.8848
     2.9323   3.0548   3.1314   3.1858   3.2815   3.3926   3.5620   3.6246
     3.6283   3.7531   3.8239   3.9494   4.0539   4.1427   4.1457   4.2345
     4.3134   4.5189   4.6959   4.8630   6.3836   6.4199   6.4876   6.5014
     6.5552   6.5694   6.5951   6.6082   6.7762   6.8194   6.8247   6.8805
     8.2145   8.2713   8.4527   8.4925   8.6162   8.7648   8.7795   8.8274
    10.7287  12.1715  12.7805  12.8332  13.5365  13.5640  13.9558  14.0035
    14.1891  14.4105  14.5881

     occupation numbers 
     1.0000   1.0000   1.0000   1.0000   1.0000   1.0000   1.0000   1.0000
     1.0000   1.0000   1.0000   1.0000   1.0000   1.0000   1.0000   1.0000
     1.0000   1.0000   1.0000   1.0000   1.0000   1.0000   1.0000   1.0000
     1.0000   1.0000   1.0000   1.0000   1.0000   1.0000   1.0000   1.0000
     1.0000   1.0000   1.0000   1.0000   1.0000   1.0000   1.0000   1.0000
     1.0000   1.0000   1.0000   1.0000   1.0000   1.0000   1.0000   1.0000
     1.0000   1.0000   1.0000   1.0000   1.0000   1.0000   1.0000   1.0000
     1.0000   1.0000   1.0000   1.0000   1.0000   1.0000   1.0000   1.0000
     1.0000   1.0000   1.0000   1.0000   1.0000   1.0000   1.0000   1.0000
     1.0000   1.0000   1.0000   1.0000   1.0000   1.0000   1.0000   1.0000
     1.0000   1.0000   1.0000   1.0000   1.0000   1.0000   1.0000   1.0000
     1.0000   1.0000   1.0000   1.0000   1.0000   1.0000   1.0000   1.0000
     0.0000   0.0000   0.0000   0.0000   0.0000   0.0000   0.0000   0.0000
     0.0000   0.0000   0.0000   0.0000   0.0000   0.0000   0.0000   0.0000
     0.0000   0.0000   0.0000

          k = 0.0000 0.3435 0.7330 (  5663 PWs)   bands (ev):

   -79.8564 -79.8563 -79.8554 -79.8551 -45.2921 -45.2912 -45.2901 -45.2884
   -45.2247 -45.2224 -45.2129 -45.2120 -45.0277 -45.0233 -45.0226 -45.0200
   -37.5874 -37.5873 -37.5812 -37.5810 -15.1457 -15.0747 -14.9535 -14.9173
   -12.7580 -12.7365 -12.7239 -12.7113 -12.5926 -12.5601 -12.5464 -12.4986
   -12.4800 -12.4641 -12.4434 -12.4303  -2.3684  -2.1156  -2.1091  -2.0309
    -0.2093  -0.1688  -0.1153   0.0075   0.1007   0.1958   0.2555   0.3711
     0.4515   0.4540   0.5391   0.6123   1.5921   1.6956   1.8470   1.8844
     2.0669   2.0807   2.1247   2.3569   2.3740   2.4547   2.5067   2.6470
     2.8381   2.9244   2.9881   2.9972   3.1426   3.4123   3.4587   3.5407
     3.9278   4.0457   4.0892   4.1248   4.1754   4.1979   4.2781   4.4001
     4.4573   4.6381   4.7447   4.8267   6.3915   6.4270   6.4698   6.5019
     6.5064   6.5411   6.6138   6.6233   6.8080   6.8362   6.8376   6.8614
     8.2649   8.3206   8.3977   8.5071   8.5294   8.6982   8.7578   8.8161
    11.4707  12.3903  12.7107  13.0909  13.3920  13.4626  13.6306  13.8456
    14.0768  14.2826  14.4127

     occupation numbers 
     1.0000   1.0000   1.0000   1.0000   1.0000   1.0000   1.0000   1.0000
     1.0000   1.0000   1.0000   1.0000   1.0000   1.0000   1.0000   1.0000
     1.0000   1.0000   1.0000   1.0000   1.0000   1.0000   1.0000   1.0000
     1.0000   1.0000   1.0000   1.0000   1.0000   1.0000   1.0000   1.0000
     1.0000   1.0000   1.0000   1.0000   1.0000   1.0000   1.0000   1.0000
     1.0000   1.0000   1.0000   1.0000   1.0000   1.0000   1.0000   1.0000
     1.0000   1.0000   1.0000   1.0000   1.0000   1.0000   1.0000   1.0000
     1.0000   1.0000   1.0000   1.0000   1.0000   1.0000   1.0000   1.0000
     1.0000   1.0000   1.0000   1.0000   1.0000   1.0000   1.0000   1.0000
     1.0000   1.0000   1.0000   1.0000   1.0000   1.0000   1.0000   1.0000
     1.0000   1.0000   1.0000   1.0000   1.0000   1.0000   1.0000   1.0000
     1.0000   1.0000   1.0000   1.0000   1.0000   1.0000   1.0000   1.0000
     0.0000   0.0000   0.0000   0.0000   0.0000   0.0000   0.0000   0.0000
     0.0000   0.0000   0.0000   0.0000   0.0000   0.0000   0.0000   0.0000
     0.0000   0.0000   0.0000

          k = 0.0000 0.3435-1.0995 (  5674 PWs)   bands (ev):

   -79.8567 -79.8567 -79.8556 -79.8556 -45.2981 -45.2981 -45.2863 -45.2863
   -45.2208 -45.2208 -45.2182 -45.2182 -45.0258 -45.0258 -45.0242 -45.0242
   -37.5874 -37.5874 -37.5811 -37.5811 -15.0868 -15.0868 -14.9088 -14.9088
   -12.7892 -12.7892 -12.7590 -12.7590 -12.5680 -12.5680 -12.5144 -12.5144
   -12.4844 -12.4844 -12.4442 -12.4442  -2.2145  -2.2145  -2.0961  -2.0961
    -0.1492  -0.1492   0.0054   0.0054   0.2782   0.2782   0.4279   0.4279
     0.4831   0.4831   0.8298   0.8298   1.4827   1.4827   1.7389   1.7389
     1.8998   1.8998   2.0779   2.0779   2.2618   2.2618   2.5104   2.5104
     2.7998   2.7998   2.9513   2.9513   3.2748   3.2748   3.4758   3.4758
     4.0848   4.0848   4.1960   4.1960   4.2358   4.2358   4.4742   4.4742
     4.5970   4.5970   4.7863   4.7863   6.4162   6.4162   6.4899   6.4899
     6.5002   6.5002   6.6276   6.6276   6.8272   6.8272   6.8521   6.8521
     8.3218   8.3218   8.4142   8.4142   8.5947   8.5947   8.7805   8.7805
    12.2468  12.2468  12.7434  12.7434  13.5130  13.5130  13.7473  13.7473
    13.9418  13.9419  14.5924

     occupation numbers 
     1.0000   1.0000   1.0000   1.0000   1.0000   1.0000   1.0000   1.0000
     1.0000   1.0000   1.0000   1.0000   1.0000   1.0000   1.0000   1.0000
     1.0000   1.0000   1.0000   1.0000   1.0000   1.0000   1.0000   1.0000
     1.0000   1.0000   1.0000   1.0000   1.0000   1.0000   1.0000   1.0000
     1.0000   1.0000   1.0000   1.0000   1.0000   1.0000   1.0000   1.0000
     1.0000   1.0000   1.0000   1.0000   1.0000   1.0000   1.0000   1.0000
     1.0000   1.0000   1.0000   1.0000   1.0000   1.0000   1.0000   1.0000
     1.0000   1.0000   1.0000   1.0000   1.0000   1.0000   1.0000   1.0000
     1.0000   1.0000   1.0000   1.0000   1.0000   1.0000   1.0000   1.0000
     1.0000   1.0000   1.0000   1.0000   1.0000   1.0000   1.0000   1.0000
     1.0000   1.0000   1.0000   1.0000   1.0000   1.0000   1.0000   1.0000
     1.0000   1.0000   1.0000   1.0000   1.0000   1.0000   1.0000   1.0000
     0.0000   0.0000   0.0000   0.0000   0.0000   0.0000   0.0000   0.0000
     0.0000   0.0000   0.0000   0.0000   0.0000   0.0000   0.0000   0.0000
     0.0000   0.0000   0.0000

          k = 0.0000 0.6870 0.0000 (  5668 PWs)   bands (ev):

   -79.8579 -79.8572 -79.8563 -79.8543 -45.3019 -45.2984 -45.2974 -45.2842
   -45.2285 -45.2277 -45.2140 -45.2078 -45.0257 -45.0236 -45.0230 -45.0219
   -37.5861 -37.5854 -37.5833 -37.5826 -15.1604 -15.0820 -15.0584 -15.0559
   -12.7096 -12.6736 -12.6166 -12.5796 -12.5787 -12.5614 -12.5428 -12.4983
   -12.4795 -12.4533 -12.4021 -12.3904  -2.3145  -2.1334  -2.0485  -2.0430
    -0.5895  -0.4556  -0.4108  -0.4102  -0.0865   0.0196   0.1449   0.3025
     0.5131   0.5428   0.5496   0.6008   1.7559   1.9012   1.9411   2.1675
     2.2336   2.3057   2.5156   2.5331   2.5817   2.6354   2.6714   2.9029
     2.9551   3.0723   3.1845   3.2208   3.2792   3.3588   3.5537   3.6266
     3.6753   3.7532   3.8118   3.8975   3.9572   4.0557   4.1340   4.1641
     4.2151   4.3524   4.4565   4.6194   6.3918   6.4356   6.4469   6.4777
     6.5630   6.5825   6.5906   6.5953   6.8239   6.8611   6.9191   6.9632
     8.2283   8.2571   8.3885   8.4043   8.5930   8.7310   8.7681   8.7788
    11.2000  12.1336  12.5446  12.8861  13.3124  13.4701  14.3609  14.4468
    14.5533  14.5536  14.8967

     occupation numbers 
     1.0000   1.0000   1.0000   1.0000   1.0000   1.0000   1.0000   1.0000
     1.0000   1.0000   1.0000   1.0000   1.0000   1.0000   1.0000   1.0000
     1.0000   1.0000   1.0000   1.0000   1.0000   1.0000   1.0000   1.0000
     1.0000   1.0000   1.0000   1.0000   1.0000   1.0000   1.0000   1.0000
     1.0000   1.0000   1.0000   1.0000   1.0000   1.0000   1.0000   1.0000
     1.0000   1.0000   1.0000   1.0000   1.0000   1.0000   1.0000   1.0000
     1.0000   1.0000   1.0000   1.0000   1.0000   1.0000   1.0000   1.0000
     1.0000   1.0000   1.0000   1.0000   1.0000   1.0000   1.0000   1.0000
     1.0000   1.0000   1.0000   1.0000   1.0000   1.0000   1.0000   1.0000
     1.0000   1.0000   1.0000   1.0000   1.0000   1.0000   1.0000   1.0000
     1.0000   1.0000   1.0000   1.0000   1.0000   1.0000   1.0000   1.0000
     1.0000   1.0000   1.0000   1.0000   1.0000   1.0000   1.0000   1.0000
     0.0000   0.0000   0.0000   0.0000   0.0000   0.0000   0.0000   0.0000
     0.0000   0.0000   0.0000   0.0000   0.0000   0.0000   0.0000   0.0000
     0.0000   0.0000   0.0000

          k = 0.0000 0.6870 0.3665 (  5660 PWs)   bands (ev):

   -79.8575 -79.8573 -79.8549 -79.8538 -45.3040 -45.3001 -45.2920 -45.2892
   -45.2253 -45.2217 -45.2103 -45.2065 -45.0260 -45.0220 -45.0186 -45.0144
   -37.5859 -37.5852 -37.5830 -37.5829 -15.1333 -15.0645 -15.0340 -15.0327
   -12.7105 -12.6902 -12.6285 -12.6282 -12.6111 -12.5989 -12.5387 -12.5009
   -12.4774 -12.4576 -12.4101 -12.3997  -2.2906  -2.1191  -2.0474  -2.0307
    -0.4335  -0.2955  -0.2757  -0.2284  -0.0361   0.0063   0.1885   0.2712
     0.4614   0.5020   0.5383   0.5533   1.7292   1.8137   1.8402   1.9627
     2.2160   2.2353   2.3818   2.4305   2.5071   2.6659   2.7070   2.8173
     2.9444   2.9774   3.1902   3.1919   3.2876   3.4036   3.5005   3.5635
     3.7163   3.7619   3.9530   3.9848   4.0286   4.0522   4.1614   4.1969
     4.3103   4.4159   4.5163   4.6439   6.4093   6.4373   6.4519   6.4873
     6.5671   6.5748   6.5958   6.6009   6.8200   6.8498   6.9128   6.9420
     8.2240   8.2520   8.3517   8.3819   8.6017   8.7164   8.7781   8.7827
    11.4699  12.3187  12.6185  13.0445  13.3156  13.5285  14.2226  14.3232
    14.4767  14.5833  14.7615

     occupation numbers 
     1.0000   1.0000   1.0000   1.0000   1.0000   1.0000   1.0000   1.0000
     1.0000   1.0000   1.0000   1.0000   1.0000   1.0000   1.0000   1.0000
     1.0000   1.0000   1.0000   1.0000   1.0000   1.0000   1.0000   1.0000
     1.0000   1.0000   1.0000   1.0000   1.0000   1.0000   1.0000   1.0000
     1.0000   1.0000   1.0000   1.0000   1.0000   1.0000   1.0000   1.0000
     1.0000   1.0000   1.0000   1.0000   1.0000   1.0000   1.0000   1.0000
     1.0000   1.0000   1.0000   1.0000   1.0000   1.0000   1.0000   1.0000
     1.0000   1.0000   1.0000   1.0000   1.0000   1.0000   1.0000   1.0000
     1.0000   1.0000   1.0000   1.0000   1.0000   1.0000   1.0000   1.0000
     1.0000   1.0000   1.0000   1.0000   1.0000   1.0000   1.0000   1.0000
     1.0000   1.0000   1.0000   1.0000   1.0000   1.0000   1.0000   1.0000
     1.0000   1.0000   1.0000   1.0000   1.0000   1.0000   1.0000   1.0000
     0.0000   0.0000   0.0000   0.0000   0.0000   0.0000   0.0000   0.0000
     0.0000   0.0000   0.0000   0.0000   0.0000   0.0000   0.0000   0.0000
     0.0000   0.0000   0.0000

          k = 0.0000 0.6870 0.7330 (  5679 PWs)   bands (ev):

   -79.8570 -79.8568 -79.8564 -79.8562 -45.2989 -45.2989 -45.2916 -45.2910
   -45.2245 -45.2244 -45.2187 -45.2173 -45.0313 -45.0258 -45.0237 -45.0191
   -37.5855 -37.5854 -37.5833 -37.5832 -15.0733 -15.0318 -14.9838 -14.9836
   -12.7573 -12.7505 -12.7232 -12.7168 -12.6055 -12.5955 -12.5485 -12.5206
   -12.4697 -12.4560 -12.4295 -12.4215  -2.2260  -2.0933  -2.0473  -2.0458
    -0.0942  -0.0900  -0.0100   0.0373   0.0511   0.2174   0.3232   0.3315
     0.4039   0.4277   0.5099   0.5835   1.6038   1.6331   1.6916   1.7175
     2.0489   2.0561   2.2177   2.2366   2.3069   2.4377   2.6333   2.6684
     2.8232   2.8889   2.9545   3.0177   3.2703   3.3445   3.3864   3.4566
     3.9643   4.0579   4.0749   4.0765   4.1554   4.1603   4.2802   4.3352
     4.4229   4.5133   4.6498   4.7219   6.4459   6.4560   6.4979   6.5166
     6.5691   6.5763   6.5965   6.5971   6.8149   6.8314   6.8837   6.8869
     8.2183   8.2451   8.2829   8.3196   8.6205   8.6806   8.7856   8.8044
    12.1172  12.7135  12.7966  13.1246  13.5948  13.7339  13.8640  13.9273
    14.4543  14.6244  14.6531

     occupation numbers 
     1.0000   1.0000   1.0000   1.0000   1.0000   1.0000   1.0000   1.0000
     1.0000   1.0000   1.0000   1.0000   1.0000   1.0000   1.0000   1.0000
     1.0000   1.0000   1.0000   1.0000   1.0000   1.0000   1.0000   1.0000
     1.0000   1.0000   1.0000   1.0000   1.0000   1.0000   1.0000   1.0000
     1.0000   1.0000   1.0000   1.0000   1.0000   1.0000   1.0000   1.0000
     1.0000   1.0000   1.0000   1.0000   1.0000   1.0000   1.0000   1.0000
     1.0000   1.0000   1.0000   1.0000   1.0000   1.0000   1.0000   1.0000
     1.0000   1.0000   1.0000   1.0000   1.0000   1.0000   1.0000   1.0000
     1.0000   1.0000   1.0000   1.0000   1.0000   1.0000   1.0000   1.0000
     1.0000   1.0000   1.0000   1.0000   1.0000   1.0000   1.0000   1.0000
     1.0000   1.0000   1.0000   1.0000   1.0000   1.0000   1.0000   1.0000
     1.0000   1.0000   1.0000   1.0000   1.0000   1.0000   1.0000   1.0000
     0.0000   0.0000   0.0000   0.0000   0.0000   0.0000   0.0000   0.0000
     0.0000   0.0000   0.0000   0.0000   0.0000   0.0000   0.0000   0.0000
     0.0000   0.0000   0.0000

          k = 0.0000 0.6870-1.0995 (  5692 PWs)   bands (ev):

   -79.8590 -79.8590 -79.8557 -79.8557 -45.2986 -45.2986 -45.2952 -45.2952
   -45.2317 -45.2317 -45.2177 -45.2177 -45.0373 -45.0373 -45.0185 -45.0185
   -37.5855 -37.5855 -37.5834 -37.5834 -15.0281 -15.0281 -14.9575 -14.9575
   -12.7912 -12.7912 -12.7682 -12.7682 -12.5744 -12.5744 -12.5550 -12.5550
   -12.4566 -12.4566 -12.4397 -12.4397  -2.1337  -2.1337  -2.0584  -2.0584
    -0.0677  -0.0677   0.0987   0.0987   0.2079   0.2079   0.4008   0.4008
     0.5237   0.5237   0.7935   0.7935   1.4409   1.4409   1.6209   1.6209
     1.8854   1.8854   2.0621   2.0621   2.2727   2.2727   2.4931   2.4931
     2.8287   2.8287   2.9307   2.9307   3.2743   3.2743   3.3788   3.3788
     4.0514   4.0514   4.1634   4.1634   4.2209   4.2209   4.4396   4.4396
     4.5314   4.5314   4.7159   4.7159   6.4771   6.4771   6.5329   6.5329
     6.5699   6.5699   6.5964   6.5964   6.8290   6.8290   6.8417   6.8417
     8.2333   8.2333   8.2630   8.2630   8.6440   8.6440   8.8036   8.8036
    12.7190  12.7190  13.0377  13.0377  13.7135  13.7135  13.9063  13.9063
    14.3087  14.3088  14.5924

     occupation numbers 
     1.0000   1.0000   1.0000   1.0000   1.0000   1.0000   1.0000   1.0000
     1.0000   1.0000   1.0000   1.0000   1.0000   1.0000   1.0000   1.0000
     1.0000   1.0000   1.0000   1.0000   1.0000   1.0000   1.0000   1.0000
     1.0000   1.0000   1.0000   1.0000   1.0000   1.0000   1.0000   1.0000
     1.0000   1.0000   1.0000   1.0000   1.0000   1.0000   1.0000   1.0000
     1.0000   1.0000   1.0000   1.0000   1.0000   1.0000   1.0000   1.0000
     1.0000   1.0000   1.0000   1.0000   1.0000   1.0000   1.0000   1.0000
     1.0000   1.0000   1.0000   1.0000   1.0000   1.0000   1.0000   1.0000
     1.0000   1.0000   1.0000   1.0000   1.0000   1.0000   1.0000   1.0000
     1.0000   1.0000   1.0000   1.0000   1.0000   1.0000   1.0000   1.0000
     1.0000   1.0000   1.0000   1.0000   1.0000   1.0000   1.0000   1.0000
     1.0000   1.0000   1.0000   1.0000   1.0000   1.0000   1.0000   1.0000
     0.0000   0.0000   0.0000   0.0000   0.0000   0.0000   0.0000   0.0000
     0.0000   0.0000   0.0000   0.0000   0.0000   0.0000   0.0000   0.0000
     0.0000   0.0000   0.0000

          k = 0.3333 0.0000 0.0000 (  5650 PWs)   bands (ev):

   -79.8575 -79.8569 -79.8550 -79.8544 -45.2986 -45.2964 -45.2737 -45.2712
   -45.2323 -45.2169 -45.2121 -45.2088 -45.0327 -45.0325 -45.0281 -45.0204
   -37.5885 -37.5876 -37.5806 -37.5803 -15.2477 -15.1798 -14.9976 -14.9582
   -12.6541 -12.6354 -12.6175 -12.5926 -12.5709 -12.5600 -12.5509 -12.5348
   -12.4460 -12.4355 -12.4093 -12.4073  -2.4827  -2.3144  -2.0160  -1.9826
    -0.7883  -0.6334  -0.3864  -0.3770  -0.0538   0.0311   0.1102   0.2369
     0.4182   0.5203   0.5631   0.6170   1.7549   1.9051   2.1686   2.2173
     2.3624   2.4975   2.5115   2.5242   2.5399   2.7492   2.9199   3.0641
     3.1411   3.1456   3.1695   3.2622   3.2778   3.4087   3.4237   3.4917
     3.6086   3.6980   3.7540   3.7730   3.8473   4.0461   4.0927   4.1254
     4.3488   4.4402   4.8855   4.9670   6.4325   6.4421   6.4709   6.5375
     6.5441   6.5476   6.6753   6.6873   6.7229   6.7264   6.7523   6.7650
     8.2740   8.2869   8.3726   8.5182   8.7519   8.7569   8.8696   8.8821
    10.3958  11.1734  13.0187  13.0308  13.3488  13.8227  14.0662  14.2028
    14.2839  14.3328  14.7793

     occupation numbers 
     1.0000   1.0000   1.0000   1.0000   1.0000   1.0000   1.0000   1.0000
     1.0000   1.0000   1.0000   1.0000   1.0000   1.0000   1.0000   1.0000
     1.0000   1.0000   1.0000   1.0000   1.0000   1.0000   1.0000   1.0000
     1.0000   1.0000   1.0000   1.0000   1.0000   1.0000   1.0000   1.0000
     1.0000   1.0000   1.0000   1.0000   1.0000   1.0000   1.0000   1.0000
     1.0000   1.0000   1.0000   1.0000   1.0000   1.0000   1.0000   1.0000
     1.0000   1.0000   1.0000   1.0000   1.0000   1.0000   1.0000   1.0000
     1.0000   1.0000   1.0000   1.0000   1.0000   1.0000   1.0000   1.0000
     1.0000   1.0000   1.0000   1.0000   1.0000   1.0000   1.0000   1.0000
     1.0000   1.0000   1.0000   1.0000   1.0000   1.0000   1.0000   1.0000
     1.0000   1.0000   1.0000   1.0000   1.0000   1.0000   1.0000   1.0000
     1.0000   1.0000   1.0000   1.0000   1.0000   1.0000   1.0000   1.0000
     0.0000   0.0000   0.0000   0.0000   0.0000   0.0000   0.0000   0.0000
     0.0000   0.0000   0.0000   0.0000   0.0000   0.0000   0.0000   0.0000
     0.0000   0.0000   0.0000

          k = 0.3333 0.0000 0.3665 (  5640 PWs)   bands (ev):

   -79.8573 -79.8558 -79.8547 -79.8522 -45.2989 -45.2962 -45.2739 -45.2682
   -45.2333 -45.2210 -45.2115 -45.2111 -45.0293 -45.0193 -45.0143 -45.0097
   -37.5882 -37.5878 -37.5802 -37.5801 -15.2198 -15.1580 -14.9753 -14.9389
   -12.6861 -12.6684 -12.6412 -12.5998 -12.5799 -12.5632 -12.5525 -12.5503
   -12.4537 -12.4410 -12.4212 -12.4201  -2.4657  -2.3083  -2.0176  -1.9700
    -0.6348  -0.4863  -0.1970  -0.1812  -0.0855   0.0537   0.0546   0.2062
     0.4226   0.5145   0.5322   0.6077   1.7040   1.8205   2.0927   2.1665
     2.3008   2.3446   2.4465   2.5231   2.5737   2.6965   2.7625   2.9672
     3.0061   3.0468   3.0570   3.1009   3.3203   3.3319   3.4724   3.4999
     3.7120   3.8692   3.8885   3.9524   3.9737   4.1336   4.1551   4.1948
     4.3706   4.4718   4.8793   4.9378   6.4124   6.4460   6.4485   6.4903
     6.5141   6.5366   6.6705   6.6811   6.7460   6.7502   6.7811   6.8032
     8.3090   8.3213   8.3784   8.4947   8.7240   8.7436   8.8311   8.8424
    10.7124  11.4090  12.8738  12.9415  13.3715  13.8192  13.9620  13.9761
    14.0081  14.2503  14.7449

     occupation numbers 
     1.0000   1.0000   1.0000   1.0000   1.0000   1.0000   1.0000   1.0000
     1.0000   1.0000   1.0000   1.0000   1.0000   1.0000   1.0000   1.0000
     1.0000   1.0000   1.0000   1.0000   1.0000   1.0000   1.0000   1.0000
     1.0000   1.0000   1.0000   1.0000   1.0000   1.0000   1.0000   1.0000
     1.0000   1.0000   1.0000   1.0000   1.0000   1.0000   1.0000   1.0000
     1.0000   1.0000   1.0000   1.0000   1.0000   1.0000   1.0000   1.0000
     1.0000   1.0000   1.0000   1.0000   1.0000   1.0000   1.0000   1.0000
     1.0000   1.0000   1.0000   1.0000   1.0000   1.0000   1.0000   1.0000
     1.0000   1.0000   1.0000   1.0000   1.0000   1.0000   1.0000   1.0000
     1.0000   1.0000   1.0000   1.0000   1.0000   1.0000   1.0000   1.0000
     1.0000   1.0000   1.0000   1.0000   1.0000   1.0000   1.0000   1.0000
     1.0000   1.0000   1.0000   1.0000   1.0000   1.0000   1.0000   1.0000
     0.0000   0.0000   0.0000   0.0000   0.0000   0.0000   0.0000   0.0000
     0.0000   0.0000   0.0000   0.0000   0.0000   0.0000   0.0000   0.0000
     0.0000   0.0000   0.0000

          k = 0.3333 0.0000 0.7330 (  5667 PWs)   bands (ev):

   -79.8579 -79.8575 -79.8554 -79.8530 -45.2949 -45.2912 -45.2803 -45.2704
   -45.2286 -45.2268 -45.2218 -45.2147 -45.0355 -45.0332 -45.0233 -45.0151
   -37.5881 -37.5880 -37.5804 -37.5804 -15.1572 -15.1175 -14.9267 -14.9021
   -12.7654 -12.7568 -12.6893 -12.6877 -12.5778 -12.5500 -12.5420 -12.5271
   -12.4736 -12.4588 -12.4456 -12.4425  -2.3872  -2.2761  -2.0642  -2.0275
    -0.2602  -0.1833  -0.1426  -0.0564   0.0977   0.1560   0.2819   0.3590
     0.4780   0.5057   0.5347   0.5452   1.5924   1.6496   1.9998   2.0683
     2.0776   2.1026   2.2559   2.3693   2.3854   2.4673   2.4680   2.5700
     2.8813   2.8841   2.9307   2.9505   3.1916   3.3577   3.4189   3.5370
     4.0551   4.0653   4.1153   4.1542   4.2206   4.2402   4.3014   4.3413
     4.4594   4.5704   4.8881   4.9063   6.3829   6.4219   6.4307   6.4565
     6.4608   6.5118   6.6600   6.6674   6.7861   6.7915   6.8279   6.8430
     8.3913   8.4095   8.4206   8.4506   8.6832   8.7087   8.7159   8.7283
    11.4149  11.8884  12.6732  12.9305  13.2194  13.4461  13.7191  13.7975
    13.8181  13.9402  14.5806

     occupation numbers 
     1.0000   1.0000   1.0000   1.0000   1.0000   1.0000   1.0000   1.0000
     1.0000   1.0000   1.0000   1.0000   1.0000   1.0000   1.0000   1.0000
     1.0000   1.0000   1.0000   1.0000   1.0000   1.0000   1.0000   1.0000
     1.0000   1.0000   1.0000   1.0000   1.0000   1.0000   1.0000   1.0000
     1.0000   1.0000   1.0000   1.0000   1.0000   1.0000   1.0000   1.0000
     1.0000   1.0000   1.0000   1.0000   1.0000   1.0000   1.0000   1.0000
     1.0000   1.0000   1.0000   1.0000   1.0000   1.0000   1.0000   1.0000
     1.0000   1.0000   1.0000   1.0000   1.0000   1.0000   1.0000   1.0000
     1.0000   1.0000   1.0000   1.0000   1.0000   1.0000   1.0000   1.0000
     1.0000   1.0000   1.0000   1.0000   1.0000   1.0000   1.0000   1.0000
     1.0000   1.0000   1.0000   1.0000   1.0000   1.0000   1.0000   1.0000
     1.0000   1.0000   1.0000   1.0000   1.0000   1.0000   1.0000   1.0000
     0.0000   0.0000   0.0000   0.0000   0.0000   0.0000   0.0000   0.0000
     0.0000   0.0000   0.0000   0.0000   0.0000   0.0000   0.0000   0.0000
     0.0000   0.0000   0.0000

          k = 0.3333 0.0000-1.0995 (  5652 PWs)   bands (ev):

   -79.8561 -79.8561 -79.8540 -79.8540 -45.2832 -45.2832 -45.2796 -45.2796
   -45.2248 -45.2248 -45.2149 -45.2149 -45.0279 -45.0279 -45.0165 -45.0165
   -37.5882 -37.5882 -37.5799 -37.5799 -15.1099 -15.1099 -14.8914 -14.8914
   -12.8024 -12.8024 -12.7335 -12.7335 -12.5523 -12.5523 -12.5173 -12.5173
   -12.4814 -12.4814 -12.4567 -12.4567  -2.2593  -2.2593  -2.1193  -2.1193
    -0.1359  -0.1359  -0.1104  -0.1104   0.3235   0.3235   0.4805   0.4805
     0.4821   0.4821   0.7613   0.7613   1.5381   1.5381   1.8241   1.8241
     1.9667   1.9667   2.0095   2.0095   2.3920   2.3920   2.4094   2.4094
     2.8879   2.8879   2.8898   2.8898   3.2246   3.2246   3.4928   3.4928
     4.2069   4.2069   4.2277   4.2277   4.2888   4.2888   4.3595   4.3595
     4.6231   4.6231   4.8969   4.8969   6.3885   6.3885   6.4300   6.4300
     6.4787   6.4787   6.6585   6.6585   6.8098   6.8098   6.8517   6.8517
     8.4154   8.4154   8.5584   8.5584   8.5720   8.5720   8.6766   8.6766
    12.0449  12.0449  12.6963  12.6963  13.1542  13.1542  13.6837  13.6837
    13.8246  13.8246  14.5115

     occupation numbers 
     1.0000   1.0000   1.0000   1.0000   1.0000   1.0000   1.0000   1.0000
     1.0000   1.0000   1.0000   1.0000   1.0000   1.0000   1.0000   1.0000
     1.0000   1.0000   1.0000   1.0000   1.0000   1.0000   1.0000   1.0000
     1.0000   1.0000   1.0000   1.0000   1.0000   1.0000   1.0000   1.0000
     1.0000   1.0000   1.0000   1.0000   1.0000   1.0000   1.0000   1.0000
     1.0000   1.0000   1.0000   1.0000   1.0000   1.0000   1.0000   1.0000
     1.0000   1.0000   1.0000   1.0000   1.0000   1.0000   1.0000   1.0000
     1.0000   1.0000   1.0000   1.0000   1.0000   1.0000   1.0000   1.0000
     1.0000   1.0000   1.0000   1.0000   1.0000   1.0000   1.0000   1.0000
     1.0000   1.0000   1.0000   1.0000   1.0000   1.0000   1.0000   1.0000
     1.0000   1.0000   1.0000   1.0000   1.0000   1.0000   1.0000   1.0000
     1.0000   1.0000   1.0000   1.0000   1.0000   1.0000   1.0000   1.0000
     0.0000   0.0000   0.0000   0.0000   0.0000   0.0000   0.0000   0.0000
     0.0000   0.0000   0.0000   0.0000   0.0000   0.0000   0.0000   0.0000
     0.0000   0.0000   0.0000

          k = 0.3333 0.3435 0.0000 (  5667 PWs)   bands (ev):

   -79.8579 -79.8573 -79.8560 -79.8557 -45.3026 -45.2972 -45.2879 -45.2864
   -45.2281 -45.2199 -45.2163 -45.2148 -45.0314 -45.0308 -45.0257 -45.0197
   -37.5878 -37.5873 -37.5813 -37.5811 -15.2192 -15.1591 -15.0112 -14.9841
   -12.6739 -12.6376 -12.6075 -12.6036 -12.5899 -12.5483 -12.5448 -12.5428
   -12.4431 -12.4374 -12.4128 -12.4007  -2.4174  -2.2569  -2.0155  -2.0076
    -0.7182  -0.5832  -0.3984  -0.3901  -0.0313   0.0082   0.2189   0.2649
     0.3512   0.4629   0.5845   0.5961   1.7908   1.8990   2.0886   2.2189
     2.3310   2.3955   2.4037   2.6448   2.6481   2.7583   2.8339   2.9266
     2.9608   3.0833   3.1383   3.2139   3.4210   3.4533   3.4574   3.4900
     3.5339   3.7051   3.7727   3.8687   3.8984   4.0210   4.1176   4.1226
     4.3020   4.3975   4.7228   4.8421   6.3873   6.4370   6.4929   6.5227
     6.5724   6.5743   6.5879   6.5907   6.7684   6.7937   6.8342   6.8726
     8.2087   8.2385   8.4686   8.5244   8.6707   8.7389   8.8134   8.8229
    10.6839  11.3936  12.9066  13.1749  13.2516  13.9270  14.1593  14.3007
    14.3893  14.4323  14.6101

     occupation numbers 
     1.0000   1.0000   1.0000   1.0000   1.0000   1.0000   1.0000   1.0000
     1.0000   1.0000   1.0000   1.0000   1.0000   1.0000   1.0000   1.0000
     1.0000   1.0000   1.0000   1.0000   1.0000   1.0000   1.0000   1.0000
     1.0000   1.0000   1.0000   1.0000   1.0000   1.0000   1.0000   1.0000
     1.0000   1.0000   1.0000   1.0000   1.0000   1.0000   1.0000   1.0000
     1.0000   1.0000   1.0000   1.0000   1.0000   1.0000   1.0000   1.0000
     1.0000   1.0000   1.0000   1.0000   1.0000   1.0000   1.0000   1.0000
     1.0000   1.0000   1.0000   1.0000   1.0000   1.0000   1.0000   1.0000
     1.0000   1.0000   1.0000   1.0000   1.0000   1.0000   1.0000   1.0000
     1.0000   1.0000   1.0000   1.0000   1.0000   1.0000   1.0000   1.0000
     1.0000   1.0000   1.0000   1.0000   1.0000   1.0000   1.0000   1.0000
     1.0000   1.0000   1.0000   1.0000   1.0000   1.0000   1.0000   1.0000
     0.0000   0.0000   0.0000   0.0000   0.0000   0.0000   0.0000   0.0000
     0.0000   0.0000   0.0000   0.0000   0.0000   0.0000   0.0000   0.0000
     0.0000   0.0000   0.0000

          k = 0.3333 0.3435 0.3665 (  5658 PWs)   bands (ev):

   -79.8575 -79.8560 -79.8556 -79.8545 -45.3012 -45.2933 -45.2900 -45.2859
   -45.2280 -45.2227 -45.2161 -45.2135 -45.0249 -45.0237 -45.0162 -45.0133
   -37.5874 -37.5874 -37.5811 -37.5811 -15.1917 -15.1375 -14.9890 -14.9639
   -12.6920 -12.6692 -12.6454 -12.6107 -12.5964 -12.5705 -12.5589 -12.5341
   -12.4523 -12.4466 -12.4212 -12.4098  -2.3989  -2.2519  -2.0154  -1.9896
    -0.5657  -0.4405  -0.2244  -0.2069  -0.0174   0.0045   0.1874   0.2596
     0.3199   0.4494   0.5680   0.6007   1.7048   1.7860   2.0657   2.1353
     2.2165   2.3471   2.3686   2.5081   2.6012   2.6632   2.7598   2.9160
     2.9359   3.0211   3.0627   3.1319   3.2865   3.3839   3.4532   3.5388
     3.6987   3.7963   3.9300   3.9579   4.0256   4.1179   4.1312   4.2173
     4.3282   4.4402   4.7344   4.8312   6.3982   6.4264   6.4835   6.5105
     6.5477   6.5515   6.6033   6.6121   6.7803   6.8039   6.8379   6.8648
     8.2273   8.2542   8.4739   8.4971   8.6390   8.7174   8.7930   8.8168
    10.9864  11.6214  12.8988  13.0920  13.2954  13.7353  14.0509  14.1163
    14.2676  14.4208  14.7141

     occupation numbers 
     1.0000   1.0000   1.0000   1.0000   1.0000   1.0000   1.0000   1.0000
     1.0000   1.0000   1.0000   1.0000   1.0000   1.0000   1.0000   1.0000
     1.0000   1.0000   1.0000   1.0000   1.0000   1.0000   1.0000   1.0000
     1.0000   1.0000   1.0000   1.0000   1.0000   1.0000   1.0000   1.0000
     1.0000   1.0000   1.0000   1.0000   1.0000   1.0000   1.0000   1.0000
     1.0000   1.0000   1.0000   1.0000   1.0000   1.0000   1.0000   1.0000
     1.0000   1.0000   1.0000   1.0000   1.0000   1.0000   1.0000   1.0000
     1.0000   1.0000   1.0000   1.0000   1.0000   1.0000   1.0000   1.0000
     1.0000   1.0000   1.0000   1.0000   1.0000   1.0000   1.0000   1.0000
     1.0000   1.0000   1.0000   1.0000   1.0000   1.0000   1.0000   1.0000
     1.0000   1.0000   1.0000   1.0000   1.0000   1.0000   1.0000   1.0000
     1.0000   1.0000   1.0000   1.0000   1.0000   1.0000   1.0000   1.0000
     0.0000   0.0000   0.0000   0.0000   0.0000   0.0000   0.0000   0.0000
     0.0000   0.0000   0.0000   0.0000   0.0000   0.0000   0.0000   0.0000
     0.0000   0.0000   0.0000

          k = 0.3333 0.3435 0.7330 (  5677 PWs)   bands (ev):

   -79.8577 -79.8573 -79.8560 -79.8553 -45.2987 -45.2963 -45.2917 -45.2898
   -45.2253 -45.2218 -45.2173 -45.2140 -45.0323 -45.0301 -45.0243 -45.0201
   -37.5875 -37.5875 -37.5813 -37.5811 -15.1309 -15.0961 -14.9410 -14.9237
   -12.7652 -12.7545 -12.7017 -12.6958 -12.5935 -12.5722 -12.5383 -12.5160
   -12.4745 -12.4666 -12.4378 -12.4307  -2.3278  -2.2226  -2.0474  -2.0290
    -0.2150  -0.1864  -0.0966   0.0035   0.1182   0.2082   0.2762   0.2943
     0.4469   0.4930   0.5224   0.5837   1.5537   1.5967   1.8987   1.9099
     2.1533   2.1676   2.1880   2.3332   2.3630   2.4315   2.5201   2.6040
     2.8583   2.9079   2.9232   2.9548   3.1722   3.3210   3.4486   3.5157
     3.9915   4.0180   4.1191   4.1935   4.2061   4.2503   4.2621   4.3864
     4.4318   4.5533   4.7606   4.8060   6.4093   6.4320   6.4775   6.4985
     6.5052   6.5258   6.6166   6.6237   6.8012   6.8188   6.8446   6.8551
     8.2752   8.2970   8.4344   8.4754   8.5898   8.6811   8.7421   8.7859
    11.6671  12.1002  12.8323  13.0811  13.2870  13.4968  13.7682  13.8500
    14.0626  14.1480  14.5689

     occupation numbers 
     1.0000   1.0000   1.0000   1.0000   1.0000   1.0000   1.0000   1.0000
     1.0000   1.0000   1.0000   1.0000   1.0000   1.0000   1.0000   1.0000
     1.0000   1.0000   1.0000   1.0000   1.0000   1.0000   1.0000   1.0000
     1.0000   1.0000   1.0000   1.0000   1.0000   1.0000   1.0000   1.0000
     1.0000   1.0000   1.0000   1.0000   1.0000   1.0000   1.0000   1.0000
     1.0000   1.0000   1.0000   1.0000   1.0000   1.0000   1.0000   1.0000
     1.0000   1.0000   1.0000   1.0000   1.0000   1.0000   1.0000   1.0000
     1.0000   1.0000   1.0000   1.0000   1.0000   1.0000   1.0000   1.0000
     1.0000   1.0000   1.0000   1.0000   1.0000   1.0000   1.0000   1.0000
     1.0000   1.0000   1.0000   1.0000   1.0000   1.0000   1.0000   1.0000
     1.0000   1.0000   1.0000   1.0000   1.0000   1.0000   1.0000   1.0000
     1.0000   1.0000   1.0000   1.0000   1.0000   1.0000   1.0000   1.0000
     0.0000   0.0000   0.0000   0.0000   0.0000   0.0000   0.0000   0.0000
     0.0000   0.0000   0.0000   0.0000   0.0000   0.0000   0.0000   0.0000
     0.0000   0.0000   0.0000

          k = 0.3333 0.3435-1.0995 (  5660 PWs)   bands (ev):

   -79.8559 -79.8559 -79.8551 -79.8551 -45.2935 -45.2935 -45.2873 -45.2873
   -45.2182 -45.2182 -45.2114 -45.2114 -45.0273 -45.0273 -45.0210 -45.0210
   -37.5874 -37.5874 -37.5810 -37.5810 -15.0862 -15.0862 -14.9089 -14.9089
   -12.8011 -12.8011 -12.7436 -12.7436 -12.5717 -12.5717 -12.5109 -12.5109
   -12.4856 -12.4856 -12.4462 -12.4462  -2.2124  -2.2124  -2.0962  -2.0962
    -0.1264  -0.1264  -0.0426  -0.0426   0.3259   0.3259   0.4108   0.4108
     0.5359   0.5359   0.7711   0.7711   1.4673   1.4673   1.7273   1.7273
     1.9267   1.9267   2.1205   2.1205   2.3052   2.3052   2.4699   2.4699
     2.8164   2.8164   2.9059   2.9059   3.2448   3.2448   3.4578   3.4578
     4.1251   4.1251   4.1929   4.1929   4.2951   4.2951   4.4437   4.4437
     4.5959   4.5959   4.7813   4.7813   6.4332   6.4332   6.4790   6.4790
     6.5027   6.5027   6.6246   6.6246   6.8166   6.8166   6.8520   6.8520
     8.3230   8.3230   8.4198   8.4198   8.6230   8.6230   8.7412   8.7412
    12.2867  12.2867  12.8444  12.8444  13.3193  13.3193  13.7433  13.7433
    13.9726  13.9726  14.5596

     occupation numbers 
     1.0000   1.0000   1.0000   1.0000   1.0000   1.0000   1.0000   1.0000
     1.0000   1.0000   1.0000   1.0000   1.0000   1.0000   1.0000   1.0000
     1.0000   1.0000   1.0000   1.0000   1.0000   1.0000   1.0000   1.0000
     1.0000   1.0000   1.0000   1.0000   1.0000   1.0000   1.0000   1.0000
     1.0000   1.0000   1.0000   1.0000   1.0000   1.0000   1.0000   1.0000
     1.0000   1.0000   1.0000   1.0000   1.0000   1.0000   1.0000   1.0000
     1.0000   1.0000   1.0000   1.0000   1.0000   1.0000   1.0000   1.0000
     1.0000   1.0000   1.0000   1.0000   1.0000   1.0000   1.0000   1.0000
     1.0000   1.0000   1.0000   1.0000   1.0000   1.0000   1.0000   1.0000
     1.0000   1.0000   1.0000   1.0000   1.0000   1.0000   1.0000   1.0000
     1.0000   1.0000   1.0000   1.0000   1.0000   1.0000   1.0000   1.0000
     1.0000   1.0000   1.0000   1.0000   1.0000   1.0000   1.0000   1.0000
     0.0000   0.0000   0.0000   0.0000   0.0000   0.0000   0.0000   0.0000
     0.0000   0.0000   0.0000   0.0000   0.0000   0.0000   0.0000   0.0000
     0.0000   0.0000   0.0000

          k = 0.3333 0.6870 0.0000 (  5655 PWs)   bands (ev):

   -79.8571 -79.8564 -79.8550 -79.8542 -45.3015 -45.2962 -45.2910 -45.2897
   -45.2238 -45.2185 -45.2172 -45.2078 -45.0235 -45.0209 -45.0162 -45.0155
   -37.5855 -37.5854 -37.5830 -37.5829 -15.1445 -15.1076 -15.0543 -15.0503
   -12.6831 -12.6476 -12.6326 -12.5976 -12.5813 -12.5681 -12.5557 -12.5412
   -12.4402 -12.4262 -12.4129 -12.3983  -2.2581  -2.1358  -2.0981  -2.0421
    -0.5496  -0.4670  -0.4317  -0.4004  -0.0383   0.0805   0.0860   0.2175
     0.4724   0.5031   0.5668   0.5942   1.8959   1.9574   2.0347   2.2073
     2.2489   2.3372   2.3922   2.5224   2.5382   2.5487   2.6908   2.8087
     3.0462   3.1076   3.1576   3.1672   3.3630   3.4736   3.5188   3.5753
     3.6637   3.7691   3.8182   3.9078   3.9480   4.0293   4.0866   4.1507
     4.2642   4.3861   4.4434   4.5746   6.3940   6.4114   6.4628   6.4756
     6.5680   6.5804   6.5925   6.6016   6.8468   6.8907   6.8956   6.9405
     8.2250   8.2400   8.3777   8.3818   8.6635   8.7502   8.7570   8.7768
    11.4013  11.9504  12.2646  12.6476  13.6600  14.1292  14.2773  14.4700
    14.4999  14.6306  14.7394

     occupation numbers 
     1.0000   1.0000   1.0000   1.0000   1.0000   1.0000   1.0000   1.0000
     1.0000   1.0000   1.0000   1.0000   1.0000   1.0000   1.0000   1.0000
     1.0000   1.0000   1.0000   1.0000   1.0000   1.0000   1.0000   1.0000
     1.0000   1.0000   1.0000   1.0000   1.0000   1.0000   1.0000   1.0000
     1.0000   1.0000   1.0000   1.0000   1.0000   1.0000   1.0000   1.0000
     1.0000   1.0000   1.0000   1.0000   1.0000   1.0000   1.0000   1.0000
     1.0000   1.0000   1.0000   1.0000   1.0000   1.0000   1.0000   1.0000
     1.0000   1.0000   1.0000   1.0000   1.0000   1.0000   1.0000   1.0000
     1.0000   1.0000   1.0000   1.0000   1.0000   1.0000   1.0000   1.0000
     1.0000   1.0000   1.0000   1.0000   1.0000   1.0000   1.0000   1.0000
     1.0000   1.0000   1.0000   1.0000   1.0000   1.0000   1.0000   1.0000
     1.0000   1.0000   1.0000   1.0000   1.0000   1.0000   1.0000   1.0000
     0.0000   0.0000   0.0000   0.0000   0.0000   0.0000   0.0000   0.0000
     0.0000   0.0000   0.0000   0.0000   0.0000   0.0000   0.0000   0.0000
     0.0000   0.0000   0.0000

          k = 0.3333 0.6870 0.3665 (  5666 PWs)   bands (ev):

   -79.8573 -79.8562 -79.8561 -79.8552 -45.3022 -45.2957 -45.2946 -45.2922
   -45.2243 -45.2207 -45.2168 -45.2140 -45.0257 -45.0249 -45.0184 -45.0165
   -37.5855 -37.5855 -37.5833 -37.5830 -15.1190 -15.0860 -15.0317 -15.0283
   -12.6942 -12.6695 -12.6527 -12.6315 -12.6033 -12.5814 -12.5709 -12.5441
   -12.4463 -12.4323 -12.4199 -12.4066  -2.2413  -2.1316  -2.0829  -2.0328
    -0.3953  -0.3252  -0.2658  -0.2273  -0.0069   0.0294   0.1437   0.1820
     0.4273   0.4937   0.5492   0.5800   1.7531   1.8221   1.9581   1.9826
     2.2174   2.2973   2.3453   2.3820   2.5008   2.5937   2.6915   2.7632
     3.0064   3.0296   3.1284   3.1407   3.3099   3.4112   3.4875   3.5407
     3.7623   3.8098   3.9247   3.9640   4.0518   4.0956   4.1308   4.2007
     4.3156   4.4321   4.4822   4.5949   6.4094   6.4225   6.4661   6.4822
     6.5675   6.5766   6.5980   6.6028   6.8422   6.8748   6.8898   6.9211
     8.2202   8.2339   8.3479   8.3586   8.6637   8.7355   8.7591   8.7797
    11.6551  12.1453  12.4319  12.7645  13.6339  13.9756  14.1275  14.3766
    14.4963  14.6430  14.7291

     occupation numbers 
     1.0000   1.0000   1.0000   1.0000   1.0000   1.0000   1.0000   1.0000
     1.0000   1.0000   1.0000   1.0000   1.0000   1.0000   1.0000   1.0000
     1.0000   1.0000   1.0000   1.0000   1.0000   1.0000   1.0000   1.0000
     1.0000   1.0000   1.0000   1.0000   1.0000   1.0000   1.0000   1.0000
     1.0000   1.0000   1.0000   1.0000   1.0000   1.0000   1.0000   1.0000
     1.0000   1.0000   1.0000   1.0000   1.0000   1.0000   1.0000   1.0000
     1.0000   1.0000   1.0000   1.0000   1.0000   1.0000   1.0000   1.0000
     1.0000   1.0000   1.0000   1.0000   1.0000   1.0000   1.0000   1.0000
     1.0000   1.0000   1.0000   1.0000   1.0000   1.0000   1.0000   1.0000
     1.0000   1.0000   1.0000   1.0000   1.0000   1.0000   1.0000   1.0000
     1.0000   1.0000   1.0000   1.0000   1.0000   1.0000   1.0000   1.0000
     1.0000   1.0000   1.0000   1.0000   1.0000   1.0000   1.0000   1.0000
     0.0000   0.0000   0.0000   0.0000   0.0000   0.0000   0.0000   0.0000
     0.0000   0.0000   0.0000   0.0000   0.0000   0.0000   0.0000   0.0000
     0.0000   0.0000   0.0000

          k = 0.3333 0.6870 0.7330 (  5662 PWs)   bands (ev):

   -79.8569 -79.8559 -79.8554 -79.8551 -45.2984 -45.2975 -45.2929 -45.2918
   -45.2209 -45.2152 -45.2126 -45.2083 -45.0279 -45.0250 -45.0227 -45.0177
   -37.5854 -37.5853 -37.5831 -37.5831 -15.0634 -15.0427 -14.9841 -14.9819
   -12.7569 -12.7452 -12.7271 -12.7173 -12.5978 -12.5754 -12.5677 -12.5409
   -12.4571 -12.4446 -12.4368 -12.4267  -2.1887  -2.1117  -2.0729  -2.0399
    -0.0993  -0.0877   0.0040   0.0772   0.0934   0.1495   0.2093   0.2772
     0.4716   0.5077   0.5430   0.5877   1.5624   1.5773   1.7253   1.7375
     2.0864   2.1028   2.1894   2.2195   2.3798   2.4971   2.5667   2.6257
     2.8434   2.9082   2.9192   2.9711   3.2643   3.3067   3.4014   3.4415
     4.0117   4.0254   4.0883   4.1056   4.2108   4.2454   4.2829   4.3360
     4.4461   4.5340   4.5934   4.6652   6.4473   6.4561   6.5004   6.5100
     6.5653   6.5786   6.5969   6.6025   6.8268   6.8467   6.8642   6.8761
     8.2150   8.2249   8.2888   8.3015   8.6719   8.7155   8.7575   8.7832
    12.2511  12.5708  12.7870  12.9916  13.6650  13.7500  13.9775  13.9884
    14.4563  14.5046  14.6229

     occupation numbers 
     1.0000   1.0000   1.0000   1.0000   1.0000   1.0000   1.0000   1.0000
     1.0000   1.0000   1.0000   1.0000   1.0000   1.0000   1.0000   1.0000
     1.0000   1.0000   1.0000   1.0000   1.0000   1.0000   1.0000   1.0000
     1.0000   1.0000   1.0000   1.0000   1.0000   1.0000   1.0000   1.0000
     1.0000   1.0000   1.0000   1.0000   1.0000   1.0000   1.0000   1.0000
     1.0000   1.0000   1.0000   1.0000   1.0000   1.0000   1.0000   1.0000
     1.0000   1.0000   1.0000   1.0000   1.0000   1.0000   1.0000   1.0000
     1.0000   1.0000   1.0000   1.0000   1.0000   1.0000   1.0000   1.0000
     1.0000   1.0000   1.0000   1.0000   1.0000   1.0000   1.0000   1.0000
     1.0000   1.0000   1.0000   1.0000   1.0000   1.0000   1.0000   1.0000
     1.0000   1.0000   1.0000   1.0000   1.0000   1.0000   1.0000   1.0000
     1.0000   1.0000   1.0000   1.0000   1.0000   1.0000   1.0000   1.0000
     0.0000   0.0000   0.0000   0.0000   0.0000   0.0000   0.0000   0.0000
     0.0000   0.0000   0.0000   0.0000   0.0000   0.0000   0.0000   0.0000
     0.0000   0.0000   0.0000

          k = 0.3333 0.6870-1.0995 (  5678 PWs)   bands (ev):

   -79.8569 -79.8569 -79.8563 -79.8563 -45.3001 -45.3001 -45.2968 -45.2968
   -45.2189 -45.2189 -45.2165 -45.2165 -45.0265 -45.0265 -45.0239 -45.0239
   -37.5856 -37.5856 -37.5831 -37.5831 -15.0272 -15.0272 -14.9582 -14.9582
   -12.7933 -12.7933 -12.7668 -12.7668 -12.5742 -12.5742 -12.5499 -12.5499
   -12.4567 -12.4567 -12.4436 -12.4436  -2.1231  -2.1231  -2.0696  -2.0696
    -0.0522  -0.0522   0.0306   0.0306   0.2726   0.2726   0.3666   0.3666
     0.6109   0.6109   0.7667   0.7667   1.4116   1.4116   1.5767   1.5767
     1.9292   1.9292   2.0634   2.0634   2.3301   2.3301   2.4791   2.4791
     2.8181   2.8181   2.8878   2.8878   3.2738   3.2738   3.3611   3.3611
     4.0917   4.0917   4.1492   4.1492   4.2990   4.2990   4.4270   4.4270
     4.5637   4.5637   4.6664   4.6664   6.4788   6.4788   6.5274   6.5274
     6.5765   6.5765   6.5946   6.5946   6.8253   6.8253   6.8418   6.8418
     8.2236   8.2236   8.2573   8.2573   8.6893   8.6893   8.7717   8.7717
    12.7528  12.7528  13.0208  13.0208  13.6734  13.6734  13.8555  13.8556
    14.2988  14.2989  14.5611

     occupation numbers 
     1.0000   1.0000   1.0000   1.0000   1.0000   1.0000   1.0000   1.0000
     1.0000   1.0000   1.0000   1.0000   1.0000   1.0000   1.0000   1.0000
     1.0000   1.0000   1.0000   1.0000   1.0000   1.0000   1.0000   1.0000
     1.0000   1.0000   1.0000   1.0000   1.0000   1.0000   1.0000   1.0000
     1.0000   1.0000   1.0000   1.0000   1.0000   1.0000   1.0000   1.0000
     1.0000   1.0000   1.0000   1.0000   1.0000   1.0000   1.0000   1.0000
     1.0000   1.0000   1.0000   1.0000   1.0000   1.0000   1.0000   1.0000
     1.0000   1.0000   1.0000   1.0000   1.0000   1.0000   1.0000   1.0000
     1.0000   1.0000   1.0000   1.0000   1.0000   1.0000   1.0000   1.0000
     1.0000   1.0000   1.0000   1.0000   1.0000   1.0000   1.0000   1.0000
     1.0000   1.0000   1.0000   1.0000   1.0000   1.0000   1.0000   1.0000
     1.0000   1.0000   1.0000   1.0000   1.0000   1.0000   1.0000   1.0000
     0.0000   0.0000   0.0000   0.0000   0.0000   0.0000   0.0000   0.0000
     0.0000   0.0000   0.0000   0.0000   0.0000   0.0000   0.0000   0.0000
     0.0000   0.0000   0.0000

     the Fermi energy is     7.5398 ev

!    total energy              =   -2097.61753509 Ry
     Harris-Foulkes estimate   =   -2097.61752744 Ry
     estimated scf accuracy    <       0.00000069 Ry

     The total energy is the sum of the following terms:

     one-electron contribution =    -960.91768525 Ry
     hartree contribution      =     571.67250618 Ry
     xc contribution           =    -291.38936998 Ry
     ewald contribution        =    -960.42563850 Ry
     one-center paw contrib.   =    -456.55734754 Ry
      -> PAW hartree energy AE =       0.00000000 Ry
      -> PAW hartree energy PS =       0.00000000 Ry
      -> PAW xc energy AE      =       0.00000000 Ry
      -> PAW xc energy PS      =       0.00000000 Ry
      -> total E_H with PAW    =     571.67250618 Ry
      -> total E_XC with PAW   =    -291.38936998 Ry
     smearing contrib. (-TS)   =      -0.00000000 Ry

     convergence has been achieved in  11 iterations

     negative rho (up, down):  5.057E-04 0.000E+00

     Forces acting on atoms (cartesian axes, Ry/au):

     atom    1 type  4   force =     0.00000000    0.00000000    0.00000000
     atom    2 type  4   force =     0.00000000   -0.00000000    0.00000000
     atom    3 type  4   force =     0.00000000   -0.00000000   -0.00000000
     atom    4 type  4   force =     0.00000000    0.00000000   -0.00000000
     atom    5 type  2   force =     0.03937709    0.00000000    0.02292675
     atom    6 type  2   force =    -0.03937709    0.00000000   -0.02292675
     atom    7 type  2   force =    -0.03937709   -0.00000000    0.02292675
     atom    8 type  2   force =     0.03937709   -0.00000000   -0.02292675
     atom    9 type  1   force =     0.01259139    0.00000000    0.00917900
     atom   10 type  1   force =    -0.01259139    0.00000000   -0.00917900
[...]
     atom   19 type  3   force =     0.01240996    0.00237417    0.00036143
     atom   20 type  3   force =    -0.01240996   -0.00237417   -0.00036143
     atom   21 type  3   force =    -0.00987716    0.00000000    0.01099064
     atom   22 type  3   force =     0.00987716    0.00000000   -0.01099064
     atom   23 type  3   force =     0.00987716    0.00000000    0.01099064
     atom   24 type  3   force =    -0.00987716    0.00000000   -0.01099064
     atom   25 type  3   force =    -0.01598012    0.00000000   -0.00298160
     atom   26 type  3   force =     0.01598012    0.00000000    0.00298160
     atom   27 type  3   force =     0.01598012    0.00000000   -0.00298160
     atom   28 type  3   force =    -0.01598012    0.00000000    0.00298160
     The non-local contrib.  to forces
     atom    1 type  4   force =    -0.00000000    0.00000000    0.00000000
     atom    2 type  4   force =     0.00000000    0.00000000    0.00000000
     atom    3 type  4   force =    -0.00000000   -0.00000000   -0.00000000
     atom    4 type  4   force =     0.00000000    0.00000000   -0.00000000
     atom    5 type  2   force =     0.10651618    0.00000000    0.08326943
     atom    6 type  2   force =    -0.10651618    0.00000000   -0.08326943
     atom    7 type  2   force =    -0.10651618    0.00000000    0.08326943
     atom    8 type  2   force =     0.10651618    0.00000000   -0.08326943
     atom    9 type  1   force =     0.04662553    0.00000000   -0.04524040
     atom   10 type  1   force =    -0.04662553    0.00000000    0.04524040
     atom   11 type  1   force =    -0.04662553    0.00000000   -0.04524040
     atom   12 type  1   force =     0.04662553    0.00000000    0.04524040
     atom   13 type  3   force =    -0.49240341    1.17506612    0.68166201
     atom   14 type  3   force =     0.49240341   -1.17506612   -0.68166201
     atom   15 type  3   force =     0.49240341   -1.17506612    0.68166201
     atom   16 type  3   force =    -0.49240341    1.17506612   -0.68166201
     atom   17 type  3   force =    -0.49240341   -1.17506612   -0.68166201
     atom   18 type  3   force =     0.49240341    1.17506612    0.68166201
     atom   19 type  3   force =     0.49240341    1.17506612   -0.68166201
     atom   20 type  3   force =    -0.49240341   -1.17506612    0.68166201
     atom   21 type  3   force =    -1.33812363    0.00000000   -0.84564021
     atom   22 type  3   force =     1.33812363    0.00000000    0.84564021
     atom   23 type  3   force =     1.33812363    0.00000000   -0.84564021
     atom   24 type  3   force =    -1.33812363    0.00000000    0.84564021
     atom   25 type  3   force =     0.36197971    0.00000000   -1.52970670
     atom   26 type  3   force =    -0.36197971    0.00000000    1.52970670
     atom   27 type  3   force =    -0.36197971    0.00000000   -1.52970670
     atom   28 type  3   force =     0.36197971    0.00000000    1.52970670
     The ionic contribution  to forces
     atom    1 type  4   force =     0.00000000    0.00000000   -0.00000000
     atom    2 type  4   force =    -0.00000000   -0.00000000    0.00000000
     atom    3 type  4   force =    -0.00000000    0.00000000    0.00000000
     atom    4 type  4   force =    -0.00000000   -0.00000000   -0.00000000
     atom    5 type  2   force =    -4.10276489   -0.00000000   -2.73600644
     atom    6 type  2   force =     4.10276489    0.00000000    2.73600644
     atom    7 type  2   force =     4.10276489    0.00000000   -2.73600644
     atom    8 type  2   force =    -4.10276489   -0.00000000    2.73600644
     atom    9 type  1   force =    -2.07932821    0.00000000    1.98442321
     atom   10 type  1   force =     2.07932821   -0.00000000   -1.98442321
     atom   11 type  1   force =     2.07932821   -0.00000000    1.98442321
     atom   12 type  1   force =    -2.07932821    0.00000000   -1.98442321
     atom   13 type  3   force =    -3.72646069   -3.38172177   -1.22124522
     atom   14 type  3   force =     3.72646069    3.38172177    1.22124522
     atom   15 type  3   force =     3.72646069    3.38172177   -1.22124522
     atom   16 type  3   force =    -3.72646069   -3.38172177    1.22124522
     atom   17 type  3   force =    -3.72646069    3.38172177    1.22124522
     atom   18 type  3   force =     3.72646069   -3.38172177   -1.22124522
     atom   19 type  3   force =     3.72646069   -3.38172177    1.22124522
     atom   20 type  3   force =    -3.72646069    3.38172177   -1.22124522
     atom   21 type  3   force =    -0.35611076   -0.00000000    5.36648636
     atom   22 type  3   force =     0.35611076    0.00000000   -5.36648636
     atom   23 type  3   force =     0.35611076    0.00000000    5.36648636
     atom   24 type  3   force =    -0.35611076   -0.00000000   -5.36648636
     atom   25 type  3   force =    -6.71114233    0.00000000    0.96782789
     atom   26 type  3   force =     6.71114233   -0.00000000   -0.96782789
     atom   27 type  3   force =     6.71114233   -0.00000000    0.96782789
     atom   28 type  3   force =    -6.71114233    0.00000000   -0.96782789
     The local contribution  to forces
     atom    1 type  4   force =    -0.00000000    0.00000000    0.00000000
     atom    2 type  4   force =     0.00000000    0.00000000    0.00000000
     atom    3 type  4   force =     0.00000000   -0.00000000    0.00000000
     atom    4 type  4   force =    -0.00000000   -0.00000000   -0.00000000
     atom    5 type  2   force =     3.98545086   -0.00000000    2.68367426
     atom    6 type  2   force =    -3.98545086    0.00000000   -2.68367426
     atom    7 type  2   force =    -3.98545086    0.00000000    2.68367426
     atom    8 type  2   force =     3.98545086   -0.00000000   -2.68367426
     atom    9 type  1   force =     2.03882401    0.00000000   -1.93863752
     atom   10 type  1   force =    -2.03882401   -0.00000000    1.93863752
     atom   11 type  1   force =    -2.03882401    0.00000000   -1.93863752
     atom   12 type  1   force =     2.03882401    0.00000000    1.93863752
     atom   13 type  3   force =     4.20285788    2.21922394    0.54532310
     atom   14 type  3   force =    -4.20285788   -2.21922394   -0.54532310
     atom   15 type  3   force =    -4.20285788   -2.21922394    0.54532310
     atom   16 type  3   force =     4.20285788    2.21922394   -0.54532310
     atom   17 type  3   force =     4.20285788   -2.21922394   -0.54532310
     atom   18 type  3   force =    -4.20285788    2.21922394    0.54532310
     atom   19 type  3   force =    -4.20285788    2.21922394   -0.54532310
     atom   20 type  3   force =     4.20285788   -2.21922394    0.54532310
     atom   21 type  3   force =     1.67370071   -0.00000000   -4.51805276
     atom   22 type  3   force =    -1.67370071    0.00000000    4.51805276
     atom   23 type  3   force =    -1.67370071    0.00000000   -4.51805276
     atom   24 type  3   force =     1.67370071   -0.00000000    4.51805276
     atom   25 type  3   force =     6.33801961    0.00000000    0.54586221
     atom   26 type  3   force =    -6.33801961   -0.00000000   -0.54586221
     atom   27 type  3   force =    -6.33801961   -0.00000000    0.54586221
     atom   28 type  3   force =     6.33801961    0.00000000   -0.54586221
     The core correction contribution to forces
     atom    1 type  4   force =     0.00000000    0.00000000    0.00000000
     atom    2 type  4   force =     0.00000000    0.00000000    0.00000000
     atom    3 type  4   force =     0.00000000    0.00000000    0.00000000
     atom    4 type  4   force =     0.00000000    0.00000000    0.00000000
     atom    5 type  2   force =    -0.01942560    0.00000000    0.03416173
     atom    6 type  2   force =     0.01942560    0.00000000   -0.03416173
     atom    7 type  2   force =     0.01942560   -0.00000000    0.03416173
     atom    8 type  2   force =    -0.01942560    0.00000000   -0.03416173
     atom    9 type  1   force =    -0.00408920    0.00000000    0.00080267
     atom   10 type  1   force =     0.00408920    0.00000000   -0.00080267
     atom   11 type  1   force =     0.00408920    0.00000000    0.00080267
     atom   12 type  1   force =    -0.00408920    0.00000000   -0.00080267
     atom   13 type  3   force =     0.00359834   -0.01019589   -0.00610458
     atom   14 type  3   force =    -0.00359834    0.01019589    0.00610458
     atom   15 type  3   force =    -0.00359834    0.01019589   -0.00610458
     atom   16 type  3   force =     0.00359834   -0.01019589    0.00610458
     atom   17 type  3   force =     0.00359834    0.01019589    0.00610458
     atom   18 type  3   force =    -0.00359834   -0.01019589   -0.00610458
     atom   19 type  3   force =    -0.00359834   -0.01019589    0.00610458
     atom   20 type  3   force =     0.00359834    0.01019589   -0.00610458
     atom   21 type  3   force =     0.01066041   -0.00000000    0.00819440
     atom   22 type  3   force =    -0.01066041    0.00000000   -0.00819440
     atom   23 type  3   force =    -0.01066041    0.00000000    0.00819440
     atom   24 type  3   force =     0.01066041   -0.00000000   -0.00819440
     atom   25 type  3   force =    -0.00483943   -0.00000000    0.01304644
     atom   26 type  3   force =     0.00483943   -0.00000000   -0.01304644
     atom   27 type  3   force =     0.00483943   -0.00000000    0.01304644
     atom   28 type  3   force =    -0.00483943    0.00000000   -0.01304644
     The Hubbard contrib.    to forces
     atom    1 type  4   force =     0.00000000    0.00000000    0.00000000
     atom    2 type  4   force =     0.00000000    0.00000000    0.00000000
     atom    3 type  4   force =     0.00000000    0.00000000    0.00000000
     atom    4 type  4   force =     0.00000000    0.00000000    0.00000000
     atom    5 type  2   force =     0.00000000    0.00000000    0.00000000
     atom    6 type  2   force =     0.00000000    0.00000000    0.00000000
     atom    7 type  2   force =     0.00000000    0.00000000    0.00000000
     atom    8 type  2   force =     0.00000000    0.00000000    0.00000000
     atom    9 type  1   force =     0.00000000    0.00000000    0.00000000
     atom   10 type  1   force =     0.00000000    0.00000000    0.00000000
     atom   11 type  1   force =     0.00000000    0.00000000    0.00000000
     atom   12 type  1   force =     0.00000000    0.00000000    0.00000000
     atom   13 type  3   force =     0.00000000    0.00000000    0.00000000
     atom   14 type  3   force =     0.00000000    0.00000000    0.00000000
     atom   15 type  3   force =     0.00000000    0.00000000    0.00000000
     atom   16 type  3   force =     0.00000000    0.00000000    0.00000000
     atom   17 type  3   force =     0.00000000    0.00000000    0.00000000
     atom   18 type  3   force =     0.00000000    0.00000000    0.00000000
     atom   19 type  3   force =     0.00000000    0.00000000    0.00000000
     atom   20 type  3   force =     0.00000000    0.00000000    0.00000000
     atom   21 type  3   force =     0.00000000    0.00000000    0.00000000
     atom   22 type  3   force =     0.00000000    0.00000000    0.00000000
     atom   23 type  3   force =     0.00000000    0.00000000    0.00000000
     atom   24 type  3   force =     0.00000000    0.00000000    0.00000000
     atom   25 type  3   force =     0.00000000    0.00000000    0.00000000
     atom   26 type  3   force =     0.00000000    0.00000000    0.00000000
     atom   27 type  3   force =     0.00000000    0.00000000    0.00000000
     atom   28 type  3   force =     0.00000000    0.00000000    0.00000000
     The SCF correction term to forces
     atom    1 type  4   force =    -0.00000000   -0.00000000    0.00000000
     atom    2 type  4   force =    -0.00000000   -0.00000000    0.00000000
     atom    3 type  4   force =     0.00000000   -0.00000000   -0.00000000
     atom    4 type  4   force =    -0.00000000    0.00000000   -0.00000000
     atom    5 type  2   force =    -0.00000114   -0.00000000    0.00000526
     atom    6 type  2   force =     0.00000114    0.00000000   -0.00000526
     atom    7 type  2   force =     0.00000114    0.00000000    0.00000526
     atom    8 type  2   force =    -0.00000114    0.00000000   -0.00000526
     atom    9 type  1   force =     0.00000188    0.00000000    0.00000425
     atom   10 type  1   force =    -0.00000188   -0.00000000   -0.00000425
     atom   11 type  1   force =    -0.00000188    0.00000000    0.00000425
     atom   12 type  1   force =     0.00000188   -0.00000000   -0.00000425
     atom   13 type  3   force =    -0.00000208    0.00000177    0.00000325
     atom   14 type  3   force =     0.00000208   -0.00000177   -0.00000325
     atom   15 type  3   force =     0.00000208   -0.00000177    0.00000325
     atom   16 type  3   force =    -0.00000208    0.00000177   -0.00000325
     atom   17 type  3   force =    -0.00000208   -0.00000177   -0.00000325
     atom   18 type  3   force =     0.00000208    0.00000177    0.00000325
     atom   19 type  3   force =     0.00000208    0.00000177   -0.00000325
     atom   20 type  3   force =    -0.00000208   -0.00000177    0.00000325
     atom   21 type  3   force =    -0.00000389   -0.00000000    0.00000285
     atom   22 type  3   force =     0.00000389    0.00000000   -0.00000285
     atom   23 type  3   force =     0.00000389    0.00000000    0.00000285
     atom   24 type  3   force =    -0.00000389   -0.00000000   -0.00000285
     atom   25 type  3   force =     0.00000231    0.00000000   -0.00001145
     atom   26 type  3   force =    -0.00000231    0.00000000    0.00001145
     atom   27 type  3   force =    -0.00000231   -0.00000000   -0.00001145
     atom   28 type  3   force =     0.00000231    0.00000000    0.00001145

     Total force =     0.154405     Total SCF correction =     0.000031


     Computing stress (Cartesian axis) and pressure

          total   stress  (Ry/bohr**3)                   (kbar)     P= -269.88
  -0.00183321   0.00000000   0.00000000       -269.67      0.00      0.00
   0.00000000  -0.00189092   0.00000000          0.00   -278.16      0.00
   0.00000000   0.00000000  -0.00177975          0.00      0.00   -261.81

     kinetic stress (kbar)  31306.01      0.00      0.00
                                0.00  31393.92      0.00
                                0.00      0.00  31104.51

     local   stress (kbar)  -1071.15      0.00     -0.00
                                0.00  -3422.24      0.00
                               -0.00      0.00  -1352.49

     nonloc. stress (kbar)  -5441.59      0.00      0.00
                                0.00  -5439.60      0.00
                                0.00      0.00  -5414.04

     hartree stress (kbar)  15292.82     -0.00     -0.00
                               -0.00  17059.27      0.00
                               -0.00      0.00  15469.56

     exc-cor stress (kbar)  -3848.79      0.00     -0.00
                                0.00  -3851.51     -0.00
                               -0.00     -0.00  -3838.94

     corecor stress (kbar)  -4039.29     -0.00     -0.00
                               -0.00  -4036.85      0.00
                               -0.00      0.00  -4068.96

     ewald   stress (kbar) -32467.67     -0.00      0.00
                               -0.00 -31981.15     -0.00
                                0.00     -0.00 -32161.44

     hubbard stress (kbar)      0.00      0.00      0.00
                                0.00      0.00      0.00
                                0.00      0.00      0.00

     london  stress (kbar)      0.00      0.00      0.00
                                0.00      0.00      0.00
                                0.00      0.00      0.00

     DFT-D3  stress (kbar)      0.00      0.00      0.00
                                0.00      0.00      0.00
                                0.00      0.00      0.00

     XDM     stress (kbar)      0.00      0.00      0.00
                                0.00      0.00      0.00
                                0.00      0.00      0.00

     dft-nl  stress (kbar)      0.00      0.00      0.00
                                0.00      0.00      0.00
                                0.00      0.00      0.00

     TS-vdW  stress (kbar)      0.00      0.00      0.00
                                0.00      0.00      0.00
                                0.00      0.00      0.00



     Writing output data file VLAB.save/
 
     init_run     :      2.01s CPU      4.17s WALL (       2 calls)
     electrons    :    617.45s CPU    657.72s WALL (      20 calls)
     update_pot   :      3.73s CPU      3.77s WALL (      18 calls)
     forces       :      8.73s CPU      8.78s WALL (      20 calls)
     stress       :     20.00s CPU     20.06s WALL (      20 calls)

     Called by init_run:
     wfcinit      :      1.36s CPU      2.04s WALL (       2 calls)
     wfcinit:wfcr :      1.32s CPU      2.00s WALL (      48 calls)
     potinit      :      0.34s CPU      0.43s WALL (       2 calls)
     hinit0       :      0.28s CPU      1.42s WALL (       2 calls)

     Called by electrons:
     c_bands      :    561.31s CPU    598.64s WALL (     181 calls)
     sum_band     :     42.14s CPU     44.69s WALL (     181 calls)
     v_of_rho     :      0.54s CPU      0.56s WALL (     194 calls)
     v_h          :      0.04s CPU      0.04s WALL (     194 calls)
     v_xc         :      0.60s CPU      0.61s WALL (     234 calls)
     newd         :      2.37s CPU      2.55s WALL (     194 calls)
     PAW_pot      :     13.47s CPU     13.79s WALL (     212 calls)
     mix_rho      :      0.16s CPU      0.17s WALL (     181 calls)

     Called by c_bands:
     init_us_2    :      2.43s CPU      2.53s WALL (   10128 calls)
     cegterg      :    552.65s CPU    589.63s WALL (    4344 calls)

     Called by sum_band:
     sum_band:bec :      1.08s CPU      1.13s WALL (    4776 calls)
     addusdens    :      2.49s CPU      2.54s WALL (     181 calls)

     Called by *egterg:
     h_psi        :    194.22s CPU    206.78s WALL (   19236 calls)
     s_psi        :     11.50s CPU     11.78s WALL (   19236 calls)
     g_psi        :      0.31s CPU      0.32s WALL (   14844 calls)
     cdiaghg      :    304.13s CPU    327.39s WALL (   18588 calls)
     cegterg:over :     20.11s CPU     20.90s WALL (   14844 calls)
     cegterg:upda :     10.27s CPU     10.52s WALL (   14844 calls)
     cegterg:last :      5.46s CPU      5.90s WALL (    4704 calls)
     cdiaghg:chol :     32.54s CPU     36.35s WALL (   18588 calls)
     cdiaghg:inve :     17.22s CPU     18.33s WALL (   18588 calls)
     cdiaghg:para :     22.27s CPU     24.03s WALL (   37176 calls)

     Called by h_psi:
     h_psi:pot    :    193.67s CPU    206.22s WALL (   19236 calls)
     h_psi:calbec :     18.32s CPU     19.67s WALL (   19236 calls)
     vloc_psi     :    161.07s CPU    171.66s WALL (   19236 calls)
     add_vuspsi   :     14.14s CPU     14.77s WALL (   19236 calls)

     General routines
     calbec       :     29.56s CPU     31.30s WALL (   26412 calls)
     fft          :      0.69s CPU      1.40s WALL (    3007 calls)
     ffts         :      0.06s CPU      0.15s WALL (     375 calls)
     fftw         :    180.38s CPU    192.20s WALL ( 3204258 calls)
     interpolate  :      0.08s CPU      0.16s WALL (     194 calls)
 
     Parallel routines
     fft_scatt_xy :     13.50s CPU     14.41s WALL ( 3207640 calls)
     fft_scatt_yz :    124.52s CPU    132.84s WALL ( 3207640 calls)

     PAW routines
     PAW_pot      :     13.47s CPU     13.79s WALL (     212 calls)
     PAW_symme    :      0.07s CPU      0.07s WALL (     393 calls)
 
     PWSCF        :  10m56.08s CPU  11m40.65s WALL

 
   This run was terminated on:   7:54:42  16Apr2020            

=------------------------------------------------------------------------------=
   JOB DONE.
=------------------------------------------------------------------------------=
